Executable      : siesta
Version         : 5.2.1
Architecture    : x86_64
Compiler version: GNU-13.3.0
Compiler flags  : -march=nocona -mtune=haswell -ftree-vectorize -fPIC -fstack-protector-strong -fno-plt -O2 -ffunction-sections -pipe -isystem <prefix>/include -I<prefix>/_build_env/include -fdebug-prefix-map=<prefix>/work=/usr/local/src/conda/siesta-5.2.1 -fdebug-prefix-map=<prefix>=/usr/local/src/conda-prefix -I<prefix>/lib -fallow-argument-mismatch -O3
Parallelisations: none
NetCDF support
NetCDF-4 support
Lua support
DFT-D3 support

Runtime information:
* Directory : /home/samba/homes/convidat/input_example_1
* Running in serial mode.
>> Start of run:  26-MAR-2025  16:21:04

                           *********************** 
                           *  WELCOME TO SIESTA  * 
                           *********************** 

 NOTE: Siesta V5 introduces some new defaults for basis-set generation
 NOTE: which might lead to slightly different numerical results.
 NOTE: Please see the manual for full details and compatibility measures.


reinit: Reading from file xoc.fdf

reinit: -----------------------------------------------------------------------
reinit: System Name: H2 + O2 -> H2O2 reaction
reinit: -----------------------------------------------------------------------
reinit: System Label: xoc
reinit: -----------------------------------------------------------------------

initatom: Reading input for the pseudopotentials and atomic orbitals ----------
Species number:   1 Atomic number:    8 Label: O
Species number:   2 Atomic number:    1 Label: H

Ground state valence configuration (from tables):   2s02  2p04  3d00  4f00
Ground state valence configuration (from tables):   1s01  2p00  3d00  4f00

---- Processing specs for species: O
Reading pseudopotential information in formatted form from:
  O.psf

---- Processing specs for species: H
Reading pseudopotential information in unformatted form from:
  H.vps

---- Pseudopotential check for O 

Pseudopotential generated from a fully relativistic atomic calculation
There are spin-orbit semi-local pseudopotentials available

Pseudized shells:
2s( 2.00) rc: 1.14
2p( 4.00) rc: 1.14
3d( 0.00) rc: 1.14
4f( 0.00) rc: 1.14
Valence configuration for ps generation: (assumed as above)

---- Pseudopotential check for H 

Pseudized shells:
1s( 1.00) rc: 1.25
2p( 0.00) rc: 1.25
3d( 0.00) rc: 1.25
4f( 0.00) rc: 1.25
Valence configuration for ps generation: (assumed as above)
For O, standard SIESTA heuristics set lmxkb to 3
 (one more than the basis l, including polarization orbitals).
Use PS.lmax or PS.KBprojectors blocks to override.
For H, standard SIESTA heuristics set lmxkb to 2
 (one more than the basis l, including polarization orbitals).
Use PS.lmax or PS.KBprojectors blocks to override.

<basis_specs>
===============================================================================
O                    Z=   8    Mass=  15.999        Charge= 0.17977+309
Lmxo=2 Lmxkb= 3    BasisType=split      Semic=F
L=0  Nsemic=0  Cnfigmx=2
          i=1  nzeta=1  polorb=0  (2s)
            splnorm:   0.15000    
               vcte:    40.000    
               rinn:  -0.90000    
               qcoe:    0.0000    
               qyuk:    0.0000    
               qwid:   0.10000E-01
                rcs:    0.0000    
            lambdas:    1.0000    
L=1  Nsemic=0  Cnfigmx=2
          i=1  nzeta=1  polorb=1  (2p)  (to be polarized perturbatively)
            splnorm:   0.15000    
               vcte:    40.000    
               rinn:  -0.90000    
               qcoe:    0.0000    
               qyuk:    0.0000    
               qwid:   0.10000E-01
                rcs:    0.0000    
            lambdas:    1.0000    
L=2  Nsemic=0  Cnfigmx=3
          i=1  nzeta=0  polorb=0  (3d)  (perturbative polarization orbital) (from 2p)
-------------------------------------------------------------------------------
L=0  Nkbl=1  erefs: 0.17977+309
L=1  Nkbl=1  erefs: 0.17977+309
L=2  Nkbl=1  erefs: 0.17977+309
L=3  Nkbl=1  erefs: 0.17977+309
===============================================================================
</basis_specs>

Using PAO.SplitTailNorm
atom: Called for O                     (Z =   8)
Maximum radius (at nrval) set to   50.00000 8518

read_vps: Pseudopotential generation method:
read_vps: ATM3      Troullier-Martins                       
Valence charge in pseudo generation:    6.00000

read_vps: Pseudopotential includes a core correction:
read_vps: Pseudo-core for xc-correction

xc_check: Exchange-correlation functional:
xc_check: GGA Perdew, Burke & Ernzerhof 1996
V l=0 = -2*Zval/r beyond r=  1.1355
V l=1 = -2*Zval/r beyond r=  1.1355
V l=2 = -2*Zval/r beyond r=  1.1309
V l=3 = -2*Zval/r beyond r=  1.1286
All V_l potentials equal beyond r=  1.1355
This should be close to max(r_c) in ps generation
All pots = -2*Zval/r beyond r=  1.1355
Using small-core scheme (local charge) for Vlocal

VLOCAL_FROM_CHLOCAL: 99.0% of the norm of Vloc inside     33.667 Ry
VLOCAL_FROM_CHLOCAL: 99.9% of the norm of Vloc inside     76.727 Ry
atom: Maximum radius for chlocal:    1.37241
atom: Maximum radius for r*vlocal+2*Zval:    1.25469

KBgen: Kleinman-Bylander projectors: 
GHOST: No ghost state for L =  0
   l= 0   rc=  1.357289   el= -1.759790   Ekb=  9.151830   kbcos=  0.327271
GHOST: No ghost state for L =  1
   l= 1   rc=  1.345038   el= -0.663797   Ekb= -7.991133   kbcos= -0.393963
GHOST: No ghost state for L =  2
   l= 2   rc=  1.779310   el=  0.012956   Ekb= -1.983219   kbcos= -0.003702
GHOST: No ghost state for L =  3
   l= 3   rc=  2.085579   el=  0.019231   Ekb= -0.873623   kbcos= -0.000360

KBgen: Total number of Kleinman-Bylander projectors:  16
atom: -------------------------------------------------------------------------

atom: SANKEY-TYPE ORBITALS:

SPLIT: Orbitals with angular momentum L= 0

SPLIT: Basis orbitals for state 2s

SPLIT: PAO cut-off radius determined from an
SPLIT: energy shift=  0.010000 Ry
Split based on tail norm

   izeta = 1
                 lambda =    1.000000
                     rc =    3.532490
                 energy =   -1.748682
                kinetic =    1.612754
    potential(screened) =   -3.361436
       potential(ionic) =  -11.306460

SPLIT: Orbitals with angular momentum L= 1

SPLIT: Basis orbitals for state 2p

SPLIT: PAO cut-off radius determined from an
SPLIT: energy shift=  0.010000 Ry
Split based on tail norm

   izeta = 1
                 lambda =    1.000000
                     rc =    4.299534
                 energy =   -0.652755
                kinetic =    4.913628
    potential(screened) =   -5.566382
       potential(ionic) =  -13.292903

POLgen: Perturbative polarization orbital with L=  2

POLgen: Polarization orbital for state 2p
Split based on tail norm

   izeta = 1
                     rc =    4.299534
                 energy =    2.258078
                kinetic =    4.298689
    potential(screened) =   -2.040611
       potential(ionic) =   -8.188336
atom: Total number of Sankey-type orbitals:  9

atm_pop: Valence configuration (for local Pseudopot. screening):
 2s( 2.00)                                                            
 2p( 4.00)                                                            
 3d( 0.00)                                                            
Vna: chval, zval:    6.00000   6.00000

Vna:  Cut-off radius for the neutral-atom potential:   4.299534
comcore: Pseudo-core radius Rcore=  1.364142

atom: _________________________________________________________________________

<basis_specs>
===============================================================================
H                    Z=   1    Mass=  1.0080        Charge= 0.17977+309
Lmxo=1 Lmxkb= 2    BasisType=split      Semic=F
L=0  Nsemic=0  Cnfigmx=1
          i=1  nzeta=1  polorb=1  (1s)  (to be polarized perturbatively)
            splnorm:   0.15000    
               vcte:    40.000    
               rinn:  -0.90000    
               qcoe:    0.0000    
               qyuk:    0.0000    
               qwid:   0.10000E-01
                rcs:    0.0000    
            lambdas:    1.0000    
L=1  Nsemic=0  Cnfigmx=2
          i=1  nzeta=0  polorb=0  (2p)  (perturbative polarization orbital) (from 1s)
-------------------------------------------------------------------------------
L=0  Nkbl=1  erefs: 0.17977+309
L=1  Nkbl=1  erefs: 0.17977+309
L=2  Nkbl=1  erefs: 0.17977+309
===============================================================================
</basis_specs>

Using PAO.SplitTailNorm
atom: Called for H                     (Z =   1)
Maximum radius (at nrval) set to   50.00000 8518

read_vps: Pseudopotential generation method:
read_vps: ATM3      Troullier-Martins                       
Valence charge in pseudo generation:    1.00000

xc_check: Exchange-correlation functional:
xc_check: GGA Perdew, Burke & Ernzerhof 1996
V l=0 = -2*Zval/r beyond r=  1.2384
V l=1 = -2*Zval/r beyond r=  1.2321
V l=2 = -2*Zval/r beyond r=  1.2235
All V_l potentials equal beyond r=  1.2371
This should be close to max(r_c) in ps generation
All pots = -2*Zval/r beyond r=  1.2384
Using small-core scheme (local charge) for Vlocal

VLOCAL_FROM_CHLOCAL: 99.0% of the norm of Vloc inside     28.363 Ry
VLOCAL_FROM_CHLOCAL: 99.9% of the norm of Vloc inside     64.639 Ry
atom: Maximum radius for chlocal:    1.44620
atom: Maximum radius for r*vlocal+2*Zval:    1.31026

KBgen: Kleinman-Bylander projectors: 
GHOST: No ghost state for L =  0
   l= 0   rc=  1.362769   el= -0.477200   Ekb= -2.026093   kbcos= -0.345051
GHOST: No ghost state for L =  1
   l= 1   rc=  1.431710   el=  0.007219   Ekb= -0.445752   kbcos= -0.023729
GHOST: No ghost state for L =  2
   l= 2   rc=  1.471166   el=  0.012944   Ekb= -0.141918   kbcos= -0.003041

KBgen: Total number of Kleinman-Bylander projectors:   9
atom: -------------------------------------------------------------------------

atom: SANKEY-TYPE ORBITALS:

SPLIT: Orbitals with angular momentum L= 0

SPLIT: Basis orbitals for state 1s

SPLIT: PAO cut-off radius determined from an
SPLIT: energy shift=  0.010000 Ry
Split based on tail norm

   izeta = 1
                 lambda =    1.000000
                     rc =    5.232664
                 energy =   -0.466073
                kinetic =    0.944036
    potential(screened) =   -1.410108
       potential(ionic) =   -1.935607

POLgen: Perturbative polarization orbital with L=  1

POLgen: Polarization orbital for state 1s
Split based on tail norm

   izeta = 1
                     rc =    5.232664
                 energy =    0.681103
                kinetic =    1.331928
    potential(screened) =   -0.650824
       potential(ionic) =   -1.138826
atom: Total number of Sankey-type orbitals:  4

atm_pop: Valence configuration (for local Pseudopot. screening):
 1s( 1.00)                                                            
 2p( 0.00)                                                            
Vna: chval, zval:    1.00000   1.00000

Vna:  Cut-off radius for the neutral-atom potential:   5.232664

atom: _________________________________________________________________________

prinput: Basis input 

PAO.BasisType split     

%block ChemicalSpeciesLabel
    1    8 O                       # Species index, atomic number, species label
    2    1 H                       # Species index, atomic number, species label
%endblock ChemicalSpeciesLabel

%block PAO.Basis                 # Define Basis set
# WARNING: This information might be incomplete!
O                     2                    # Species label, number of l-shells
 n=2   0   1                         # n, l, Nzeta 
   3.532   
   1.000   
 n=2   1   1 P   1                   # n, l, Nzeta, Polarization, NzetaPol
   4.300   
   1.000   
H                     1                    # Species label, number of l-shells
 n=1   0   1 P   1                   # n, l, Nzeta, Polarization, NzetaPol
   5.233   
   1.000   
%endblock PAO.Basis

prinput: ----------------------------------------------------------------------

Dumping basis to NetCDF file O.ion.nc
Dumping basis to NetCDF file H.ion.nc
coor:   Atomic-coordinates input format  =     Cartesian coordinates
coor:                                          (in Angstroms)

ioxv: Reading coordinates and velocities from file
! Info in XV file prevails over previous structure input
WARNING: xoc.VERLET_RESTART not found--reading only XV file and moving back 1 time step using Euler

siesta: Atomic coordinates (Bohr) and species
siesta:      2.54735  -0.00100  -0.00070  1        1
siesta:      5.01155  -0.00100  -0.00070  1        2
siesta:     12.94052   0.02600   0.01130  2        3
siesta:     14.34566   0.00600   0.01130  2        4

siesta: System type = chain     

initatomlists: Number of atoms, orbitals, and projectors:      4    26    50

coxmol: Writing XMOL coordinates into file xoc.xyz                                                                                                                                                                                                                             

siesta: ******************** Simulation parameters ****************************
siesta:
siesta: The following are some of the parameters of the simulation.
siesta: A complete list of the parameters used, including default values,
siesta: can be found in file out.fdf
siesta:
redata: Spin configuration                          = none
redata: Number of spin components                   = 1
redata: Time-Reversal Symmetry                      = T
redata: Spin spiral                                 = F
redata: Long output                                 =   F
redata: Number of Atomic Species                    =        2
redata: Charge density info will appear in .RHO file
redata: Write Mulliken charges (when)               = none
redata: Write Mulliken Pop.                         = NO
redata: Write Hirshfeld charges (when)              = none
redata: Write Voronoi charges (when)                = none
redata: Write spin charge (when)                    = none
redata: Matel table size (NRTAB)                    =     1024
redata: Mesh Cutoff                                 =   200.0000 Ry
redata: Net charge of the system                    =     0.0000 |e|
redata: Min. number of SCF Iter                     =        0
redata: Max. number of SCF Iter                     =      250
redata: SCF convergence failure will abort job
redata: SCF mix quantity                            = Hamiltonian
redata: Mix DM or H after convergence               =   F
redata: Recompute H after scf cycle                 =   F
redata: Mix DM in first SCF step                    =   T
redata: Write Pulay info on disk                    =   F
redata: New DM Occupancy tolerance                  = 0.000000000001
redata: No kicks to SCF
redata: DM Mixing Weight for Kicks                  =     0.5000
redata: Require Harris convergence for SCF          =   F
redata: Harris energy tolerance for SCF             =     0.000100 eV
redata: Require DM convergence for SCF              =   T
redata: DM tolerance for SCF                        =     0.000300
redata: Require EDM convergence for SCF             =   F
redata: EDM tolerance for SCF                       =     0.001000 eV
redata: Require H convergence for SCF               =   T
redata: Hamiltonian tolerance for SCF               =     0.001000 eV
redata: Require (free) Energy convergence for SCF   =   F
redata: (free) Energy tolerance for SCF             =     0.000100 eV
redata: Using DFT-D3 dispersion                     =   F
redata: Using Saved Data (generic)                  =   F
redata: Use continuation files for DM               =   T
redata: Neglect nonoverlap interactions             =   F
redata: Method of Calculation                       = Diagonalization
redata: Electronic Temperature                      =   290.1130 K
redata: Fix the spin of the system                  =   F
redata: Max. number of TDED Iter                    =        1
redata: Number of TDED substeps                     =        3
redata: Dynamics option                             = Verlet MD run
redata: Initial MD time step                        =        1
redata:   Final MD time step                        =      100
redata: Length of MD time step                      =     1.0000 fs
redata: Initial Temperature of MD run               =     0.0000 K
redata: Perform a MD quench                         =   F
mix.SCF: Pulay mixing                            = Pulay
mix.SCF:    Variant                              = stable
mix.SCF:    History steps                        = 6
mix.SCF:    Linear mixing weight                 =     0.020000
mix.SCF:    Mixing weight                        =     0.020000
mix.SCF:    SVD condition                        = 0.1000E-07
redata: Save all siesta data in one NC              =   F
redata: ***********************************************************************

%block SCF.Mixers
  Pulay
%endblock SCF.Mixers

%block SCF.Mixer.Pulay
  # Mixing method
  method pulay
  variant stable

  # Mixing options
  weight 0.0200
  weight.linear 0.0200
  history 6
%endblock SCF.Mixer.Pulay

Size of DM history Fstack: 1
Total number of electrons:    14.000000
Total ionic charge:    14.000000
 Kpoints in:            1 . Kpoints trimmed:            1

siesta: k-grid: Number of k-points = 1
siesta: k-points from Monkhorst-Pack grid
siesta: k-cutoff (effective) =     5.000 Ang
siesta: k-point supercell and displacements
siesta: k-grid:     1     0     0      0.000
siesta: k-grid:     0     1     0      0.000
siesta: k-grid:     0     0     1      0.000

diag: Algorithm                                     = D&C
diag: Used triangular part                          = Lower
diag: Absolute tolerance                            =  0.100E-15
diag: Orthogonalization factor                      =  0.100E-05
diag: Memory factor                                 =  1.0000


ts: **************************************************************
ts: Save H and S matrices                           =    F
ts: Save DM and EDM matrices                        =    F
ts: Only save the overlap matrix S                  =    F
ts: **************************************************************

************************ Begin: TS CHECKS AND WARNINGS ************************
************************ End: TS CHECKS AND WARNINGS **************************


                     ====================================
                        Begin MD step =      1
                     ====================================

outcell: Unit cell vectors (Ang):
       10.000004    0.000000    0.000000
        0.000000   10.000004    0.000000
        0.000000    0.000000   10.000004

outcell: Cell vector modules (Ang)   :   10.000004   10.000004   10.000004
outcell: Cell angles (23,13,12) (deg):     90.0000     90.0000     90.0000
outcell: Cell volume (Ang**3)        :   1000.0012
Gamma-point calculation with multiply-connected orbital pairs
Folding of H and S implicitly performed
<dSpData1D:S at geom step 1
  <sparsity:sparsity for geom step 1
    nrows_g=26 nrows=26 sparsity=1.0000 nnzs=676, refcount: 7>
  <dData1D:(new from dSpData1D) n=676, refcount: 1>
refcount: 1>
new_DM -- step:     1
Initializing Density Matrix...

Attempting to read DM from file... Failed...
DM filled with atomic data:
<dSpData2D:DM initialized from atoms
  <sparsity:sparsity for geom step 1
    nrows_g=26 nrows=26 sparsity=1.0000 nnzs=676, refcount: 8>
  <dData2D:DM n=676 m=1, refcount: 1>
refcount: 1>
No. of atoms with KB's overlaping orbs in proc 0. Max # of overlaps:       4      22

InitMesh: MESH = 90 x 90 x 90 = 729000
InitMesh: Mesh cutoff (required, used) =   200.000   223.865 Ry
New grid distribution [1]: sub = 2

stepf: Fermi-Dirac step function

siesta: Program's energy decomposition (eV):
siesta: Ebs     =      -209.895187
siesta: Eions   =      1581.702395
siesta: Ena     =       338.339501
siesta: Ekin    =       624.492556
siesta: Enl     =       -90.745112
siesta: Eso     =         0.000000
siesta: Edftu   =         0.000000
siesta: DEna    =        14.378545
siesta: DUscf   =         1.600488
siesta: DUext   =         0.000000
siesta: Ex      =      -190.457482
siesta: Ec      =       -13.816583
siesta: Exc     =      -204.274065
siesta: EbV     =         0.000000
siesta: eta*DQ  =         0.000000
siesta: Emadel  =         0.000000
siesta: Emeta   =         0.000000
siesta: Emolmec =         0.000000
siesta: Ekinion =         0.000000
siesta: Eharris =      -900.351505
siesta: Etot    =      -897.910482
siesta: FreeEng =      -897.979797

        iscf     Eharris(eV)        E_KS(eV)     FreeEng(eV)     dDmax    Ef(eV) dHmax(eV)
   scf:    1     -900.351505     -897.910482     -897.979797  0.774851 -4.685393  2.426600
timer: Routine,Calls,Time,% = IterSCF        1       0.590  26.00
   scf:    2     -897.948436     -897.929517     -897.998832  0.001845 -4.718030  2.360498
   scf:    3     -898.371295     -898.214524     -898.283838  0.064671 -5.798354  0.208312
   scf:    4     -898.214559     -898.215922     -898.285236  0.009111 -5.713230  0.384109
   scf:    5     -898.218656     -898.217831     -898.287146  0.008600 -5.925959  0.060243
   scf:    6     -898.218217     -898.218134     -898.287449  0.002374 -5.906151  0.016178
mix: Pulay -- inversion failed, > SVD [rank/size] 4 / 5
   scf:    7     -898.218147     -898.218141     -898.287456  0.000088 -5.907334  0.013547
   scf:    8     -898.218166     -898.218155     -898.287470  0.000398 -5.909577  0.002547
   scf:    9     -898.218157     -898.218156     -898.287471  0.000333 -5.910205  0.000209
   scf:   10     -898.218156     -898.218156     -898.287471  0.000004 -5.910164  0.000204

SCF Convergence by DM+H criterion
max |DM_out - DM_in|         :     0.0000044010
max |H_out - H_in|      (eV) :     0.0002041529
SCF cycle converged after 10 iterations

Using DM_out to compute the final energy and forces
No. of atoms with KB's overlaping orbs in proc 0. Max # of overlaps:       4      22

siesta: E_KS(eV) =             -898.2182

siesta: E_KS - E_eggbox =      -898.2182

siesta: Atomic forces (eV/Ang):
----------------------------------------
   Tot    0.000346   -0.000319   -0.000279
----------------------------------------
   Max    4.208527
   Res    1.715933    sqrt( Sum f_i^2 / 3N )
----------------------------------------
   Max    4.208527    constrained

Stress tensor Voigt[x,y,z,yz,xz,xy] (kbar):      -21.22       -0.49       -0.25       -0.14        0.05        0.35
(Free)E + p*V (eV/cell)     -893.7196
Target enthalpy (eV/cell)     -898.2875

siesta: Stress tensor (static) (eV/Ang**3):
        -0.003067    0.000044   -0.000000
         0.000044    0.000005    0.000000
        -0.000000    0.000000    0.000006

siesta: Pressure (static):          1.63202143  kBar

siesta: Stress tensor (total) (eV/Ang**3):
        -0.013245    0.000218    0.000029
         0.000218   -0.000305   -0.000090
         0.000029   -0.000090   -0.000154

siesta: Pressure (total):          7.31854119  kBar

siesta: Temp_ion =   13729.115 K

                     ====================================
                        Begin MD step =      2
                     ====================================

outcell: Unit cell vectors (Ang):
       10.000004    0.000000    0.000000
        0.000000   10.000004    0.000000
        0.000000    0.000000   10.000004

outcell: Cell vector modules (Ang)   :   10.000004   10.000004   10.000004
outcell: Cell angles (23,13,12) (deg):     90.0000     90.0000     90.0000
outcell: Cell volume (Ang**3)        :   1000.0012
<dSpData1D:S at geom step 2
  <sparsity:sparsity for geom step 2
    nrows_g=26 nrows=26 sparsity=.9763 nnzs=660, refcount: 7>
  <dData1D:(new from dSpData1D) n=660, refcount: 1>
refcount: 1>
new_DM -- step:     2
Re-using DM from previous geometries...
Number of DMs in history: 1
 DM extrapolation coefficients: 
1   1.00000
New DM after history re-use:
<dSpData2D:SpM extrapolated using coords
  <sparsity:sparsity for geom step 2
    nrows_g=26 nrows=26 sparsity=.9763 nnzs=660, refcount: 9>
  <dData2D:(temp array for extrapolation) n=660 m=1, refcount: 1>
refcount: 1>
No. of atoms with KB's overlaping orbs in proc 0. Max # of overlaps:       4      18

InitMesh: MESH = 90 x 90 x 90 = 729000
InitMesh: Mesh cutoff (required, used) =   200.000   223.865 Ry
New grid distribution [1]: sub = 2

        iscf     Eharris(eV)        E_KS(eV)     FreeEng(eV)     dDmax    Ef(eV) dHmax(eV)
   scf:    1     -898.116866     -898.301974     -898.371289  0.012558 -5.747894  0.166406
   scf:    2     -898.299943     -898.301704     -898.371011  0.011179 -5.884717  0.130001
   scf:    3     -898.302992     -898.302448     -898.371761  0.004982 -5.840787  0.070703
   scf:    4     -898.302469     -898.302593     -898.371904  0.009699 -5.853358  0.014688
   scf:    5     -898.302608     -898.302636     -898.371951  0.006271 -5.854758  0.012539
   scf:    6     -898.302612     -898.302627     -898.371940  0.001473 -5.867502  0.016092
   scf:    7     -898.302658     -898.302653     -898.371968  0.003020 -5.864627  0.000611
   scf:    8     -898.302653     -898.302653     -898.371968  0.000134 -5.864894  0.000277

SCF Convergence by DM+H criterion
max |DM_out - DM_in|         :     0.0001344291
max |H_out - H_in|      (eV) :     0.0002766459
SCF cycle converged after 8 iterations

Using DM_out to compute the final energy and forces
No. of atoms with KB's overlaping orbs in proc 0. Max # of overlaps:       4      18

siesta: E_KS(eV) =             -898.3027

siesta: Atomic forces (eV/Ang):
----------------------------------------
   Tot    0.000699    0.000140    0.000215
----------------------------------------
   Max    3.095342
   Res    1.286106    sqrt( Sum f_i^2 / 3N )
----------------------------------------
   Max    3.095342    constrained

Stress tensor Voigt[x,y,z,yz,xz,xy] (kbar):      -21.13       -0.50       -0.27       -0.16       -0.22        0.09
(Free)E + p*V (eV/cell)     -893.8180
Target enthalpy (eV/cell)     -898.3720

siesta: Stress tensor (static) (eV/Ang**3):
        -0.003009   -0.000116   -0.000165
        -0.000116    0.000001   -0.000008
        -0.000165   -0.000008   -0.000006

siesta: Pressure (static):          1.60975263  kBar

siesta: Stress tensor (total) (eV/Ang**3):
        -0.013187    0.000058   -0.000136
         0.000058   -0.000309   -0.000097
        -0.000136   -0.000097   -0.000166

siesta: Pressure (total):          7.29627239  kBar

siesta: Temp_ion =   13893.012 K

                     ====================================
                        Begin MD step =      3
                     ====================================

outcell: Unit cell vectors (Ang):
       10.000004    0.000000    0.000000
        0.000000   10.000004    0.000000
        0.000000    0.000000   10.000004

outcell: Cell vector modules (Ang)   :   10.000004   10.000004   10.000004
outcell: Cell angles (23,13,12) (deg):     90.0000     90.0000     90.0000
outcell: Cell volume (Ang**3)        :   1000.0012
Gamma-point calculation with multiply-connected orbital pairs
Folding of H and S implicitly performed
<dSpData1D:S at geom step 3
  <sparsity:sparsity for geom step 3
    nrows_g=26 nrows=26 sparsity=1.0000 nnzs=676, refcount: 7>
  <dData1D:(new from dSpData1D) n=676, refcount: 1>
refcount: 1>
new_DM -- step:     3
Re-using DM from previous geometries...
Number of DMs in history: 1
 DM extrapolation coefficients: 
1   1.00000
New DM after history re-use:
<dSpData2D:SpM extrapolated using coords
  <sparsity:sparsity for geom step 3
    nrows_g=26 nrows=26 sparsity=1.0000 nnzs=676, refcount: 9>
  <dData2D:(temp array for extrapolation) n=676 m=1, refcount: 1>
refcount: 1>
Note: For starting DM, Qtot, Tr[D*S] =         14.00000000         13.95853191
No. of atoms with KB's overlaping orbs in proc 0. Max # of overlaps:       4      22

InitMesh: MESH = 90 x 90 x 90 = 729000
InitMesh: Mesh cutoff (required, used) =   200.000   223.865 Ry
New grid distribution [1]: sub = 2

        iscf     Eharris(eV)        E_KS(eV)     FreeEng(eV)     dDmax    Ef(eV) dHmax(eV)
   scf:    1     -898.131755     -898.427617     -898.496931  0.020079 -5.411367  0.516222
   scf:    2     -898.418812     -898.426112     -898.495348  0.021730 -5.867619  0.247121
   scf:    3     -898.430583     -898.428580     -898.497869  0.008529 -5.773092  0.156345
   scf:    4     -898.427891     -898.429373     -898.498646  0.025901 -5.801124  0.043156
   scf:    5     -898.429688     -898.429889     -898.499202  0.017268 -5.805284  0.035056
   scf:    6     -898.429953     -898.429923     -898.499236  0.000304 -5.829161  0.026952
   scf:    7     -898.430046     -898.430008     -898.499322  0.003096 -5.826965  0.001706
   scf:    8     -898.430007     -898.430008     -898.499322  0.000430 -5.827343  0.001080
   scf:    9     -898.430007     -898.430007     -898.499322  0.000079 -5.827680  0.000838

SCF Convergence by DM+H criterion
max |DM_out - DM_in|         :     0.0000790151
max |H_out - H_in|      (eV) :     0.0008377777
SCF cycle converged after 9 iterations

Using DM_out to compute the final energy and forces
No. of atoms with KB's overlaping orbs in proc 0. Max # of overlaps:       4      22

siesta: E_KS(eV) =             -898.4300

siesta: Atomic forces (eV/Ang):
----------------------------------------
   Tot   -0.000243    0.000026    0.000117
----------------------------------------
   Max    1.042393
   Res    0.424785    sqrt( Sum f_i^2 / 3N )
----------------------------------------
   Max    1.042393    constrained

Stress tensor Voigt[x,y,z,yz,xz,xy] (kbar):      -18.63       -0.50       -0.27       -0.16       -0.28       -0.06
(Free)E + p*V (eV/cell)     -894.4650
Target enthalpy (eV/cell)     -898.4993

siesta: Stress tensor (static) (eV/Ang**3):
        -0.001336   -0.000040   -0.000004
        -0.000040    0.000003   -0.000001
        -0.000004   -0.000001    0.000005

siesta: Pressure (static):          0.70932836  kBar

siesta: Stress tensor (total) (eV/Ang**3):
        -0.011625   -0.000040   -0.000176
        -0.000040   -0.000310   -0.000098
        -0.000176   -0.000098   -0.000167

siesta: Pressure (total):          6.46373343  kBar

siesta: Temp_ion =   14179.211 K

                     ====================================
                        Begin MD step =      4
                     ====================================

outcell: Unit cell vectors (Ang):
       10.000004    0.000000    0.000000
        0.000000   10.000004    0.000000
        0.000000    0.000000   10.000004

outcell: Cell vector modules (Ang)   :   10.000004   10.000004   10.000004
outcell: Cell angles (23,13,12) (deg):     90.0000     90.0000     90.0000
outcell: Cell volume (Ang**3)        :   1000.0012
<dSpData1D:S at geom step 4
  <sparsity:sparsity for geom step 4
    nrows_g=26 nrows=26 sparsity=1.0000 nnzs=676, refcount: 7>
  <dData1D:(new from dSpData1D) n=676, refcount: 1>
refcount: 1>
new_DM -- step:     4
Re-using DM from previous geometries...
Number of DMs in history: 1
 DM extrapolation coefficients: 
1   1.00000
New DM after history re-use:
<dSpData2D:SpM extrapolated using coords
  <sparsity:sparsity for geom step 4
    nrows_g=26 nrows=26 sparsity=1.0000 nnzs=676, refcount: 9>
  <dData2D:(temp array for extrapolation) n=676 m=1, refcount: 1>
refcount: 1>
Note: For starting DM, Qtot, Tr[D*S] =         14.00000000         13.94912763
No. of atoms with KB's overlaping orbs in proc 0. Max # of overlaps:       4      22

InitMesh: MESH = 90 x 90 x 90 = 729000
InitMesh: Mesh cutoff (required, used) =   200.000   223.865 Ry
New grid distribution [1]: sub = 2

        iscf     Eharris(eV)        E_KS(eV)     FreeEng(eV)     dDmax    Ef(eV) dHmax(eV)
   scf:    1     -897.987482     -898.329898     -898.399207  0.021344 -5.295809  0.636897
   scf:    2     -898.287427     -898.318185     -898.386752  0.081898 -5.848852  0.399386
   scf:    3     -898.335448     -898.327999     -898.397078  0.032178 -5.723444  0.265989
   scf:    4     -898.322229     -898.330537     -898.399667  0.074397 -5.768776  0.095495
   scf:    5     -898.332044     -898.332865     -898.402174  0.040296 -5.774360  0.038075
   scf:    6     -898.332932     -898.332907     -898.402221  0.002918 -5.779731  0.039127
   scf:    7     -898.333129     -898.333047     -898.402362  0.002798 -5.802457  0.001836
   scf:    8     -898.333048     -898.333048     -898.402362  0.000390 -5.801600  0.002461
   scf:    9     -898.333047     -898.333047     -898.402362  0.000502 -5.803085  0.001565
   scf:   10     -898.333047     -898.333047     -898.402362  0.000055 -5.803181  0.001364
   scf:   11     -898.333048     -898.333048     -898.402362  0.000412 -5.803648  0.000371
   scf:   12     -898.333048     -898.333048     -898.402362  0.000005 -5.803656  0.000336

SCF Convergence by DM+H criterion
max |DM_out - DM_in|         :     0.0000048591
max |H_out - H_in|      (eV) :     0.0003363010
SCF cycle converged after 12 iterations

Using DM_out to compute the final energy and forces
No. of atoms with KB's overlaping orbs in proc 0. Max # of overlaps:       4      22

siesta: E_KS(eV) =             -898.3330

siesta: Atomic forces (eV/Ang):
----------------------------------------
   Tot   -0.000830    0.000401    0.000378
----------------------------------------
   Max    1.835903
   Res    0.973294    sqrt( Sum f_i^2 / 3N )
----------------------------------------
   Max    1.835903    constrained

Stress tensor Voigt[x,y,z,yz,xz,xy] (kbar):      -16.91       -0.46       -0.19       -0.10        0.09        0.12
(Free)E + p*V (eV/cell)     -894.7490
Target enthalpy (eV/cell)     -898.4024

siesta: Stress tensor (static) (eV/Ang**3):
        -0.000062    0.000170    0.000324
         0.000170    0.000035    0.000044
         0.000324    0.000044    0.000063

siesta: Pressure (static):         -0.01969067  kBar

siesta: Stress tensor (total) (eV/Ang**3):
        -0.010552    0.000077    0.000055
         0.000077   -0.000286   -0.000062
         0.000055   -0.000062   -0.000122

siesta: Pressure (total):          5.85325641  kBar

siesta: Temp_ion =   13967.934 K

                     ====================================
                        Begin MD step =      5
                     ====================================

outcell: Unit cell vectors (Ang):
       10.000004    0.000000    0.000000
        0.000000   10.000004    0.000000
        0.000000    0.000000   10.000004

outcell: Cell vector modules (Ang)   :   10.000004   10.000004   10.000004
outcell: Cell angles (23,13,12) (deg):     90.0000     90.0000     90.0000
outcell: Cell volume (Ang**3)        :   1000.0012
<dSpData1D:S at geom step 5
  <sparsity:sparsity for geom step 5
    nrows_g=26 nrows=26 sparsity=1.0000 nnzs=676, refcount: 7>
  <dData1D:(new from dSpData1D) n=676, refcount: 1>
refcount: 1>
new_DM -- step:     5
Re-using DM from previous geometries...
Number of DMs in history: 1
 DM extrapolation coefficients: 
1   1.00000
New DM after history re-use:
<dSpData2D:SpM extrapolated using coords
  <sparsity:sparsity for geom step 5
    nrows_g=26 nrows=26 sparsity=1.0000 nnzs=676, refcount: 9>
  <dData2D:(temp array for extrapolation) n=676 m=1, refcount: 1>
refcount: 1>
Note: For starting DM, Qtot, Tr[D*S] =         14.00000000         13.96415805
No. of atoms with KB's overlaping orbs in proc 0. Max # of overlaps:       4      22

InitMesh: MESH = 90 x 90 x 90 = 729000
InitMesh: Mesh cutoff (required, used) =   200.000   223.865 Ry
New grid distribution [1]: sub = 2

        iscf     Eharris(eV)        E_KS(eV)     FreeEng(eV)     dDmax    Ef(eV) dHmax(eV)
   scf:    1     -897.928134     -898.187018     -898.256332  0.014306 -5.428905  0.469765
   scf:    2     -898.174961     -898.184100     -898.253367  0.025471 -5.831626  0.281956
   scf:    3     -898.189380     -898.187035     -898.256335  0.009494 -5.735663  0.192691
   scf:    4     -898.187264     -898.188215     -898.257498  0.025083 -5.777980  0.033549
   scf:    5     -898.188470     -898.188606     -898.257920  0.014915 -5.781251  0.027686
   scf:    6     -898.188630     -898.188620     -898.257933  0.000829 -5.789988  0.022993
   scf:    7     -898.188707     -898.188681     -898.257996  0.003120 -5.796965  0.001630
   scf:    8     -898.188681     -898.188681     -898.257996  0.000330 -5.797266  0.000817
   scf:    9     -898.188681     -898.188681     -898.257996  0.000034 -5.797446  0.000582

SCF Convergence by DM+H criterion
max |DM_out - DM_in|         :     0.0000344647
max |H_out - H_in|      (eV) :     0.0005823630
SCF cycle converged after 9 iterations

Using DM_out to compute the final energy and forces
No. of atoms with KB's overlaping orbs in proc 0. Max # of overlaps:       4      22

siesta: E_KS(eV) =             -898.1887

siesta: Atomic forces (eV/Ang):
----------------------------------------
   Tot   -0.002201    0.000036    0.000031
----------------------------------------
   Max    2.608959
   Res    1.324001    sqrt( Sum f_i^2 / 3N )
----------------------------------------
   Max    2.608959    constrained

Stress tensor Voigt[x,y,z,yz,xz,xy] (kbar):      -15.88       -0.37       -0.05        0.02        0.63        0.44
(Free)E + p*V (eV/cell)     -894.8670
Target enthalpy (eV/cell)     -898.2580

siesta: Stress tensor (static) (eV/Ang**3):
         0.000444    0.000338    0.000596
         0.000338    0.000078    0.000104
         0.000596    0.000104    0.000138

siesta: Pressure (static):         -0.35252394  kBar

siesta: Stress tensor (total) (eV/Ang**3):
        -0.009912    0.000275    0.000392
         0.000275   -0.000232    0.000013
         0.000392    0.000013   -0.000029

siesta: Pressure (total):          5.43291339  kBar

siesta: Temp_ion =   13622.877 K

                     ====================================
                        Begin MD step =      6
                     ====================================

outcell: Unit cell vectors (Ang):
       10.000004    0.000000    0.000000
        0.000000   10.000004    0.000000
        0.000000    0.000000   10.000004

outcell: Cell vector modules (Ang)   :   10.000004   10.000004   10.000004
outcell: Cell angles (23,13,12) (deg):     90.0000     90.0000     90.0000
outcell: Cell volume (Ang**3)        :   1000.0012
<dSpData1D:S at geom step 6
  <sparsity:sparsity for geom step 6
    nrows_g=26 nrows=26 sparsity=.9882 nnzs=668, refcount: 7>
  <dData1D:(new from dSpData1D) n=668, refcount: 1>
refcount: 1>
new_DM -- step:     6
Re-using DM from previous geometries...
Number of DMs in history: 1
 DM extrapolation coefficients: 
1   1.00000
New DM after history re-use:
<dSpData2D:SpM extrapolated using coords
  <sparsity:sparsity for geom step 6
    nrows_g=26 nrows=26 sparsity=.9882 nnzs=668, refcount: 9>
  <dData2D:(temp array for extrapolation) n=668 m=1, refcount: 1>
refcount: 1>
No. of atoms with KB's overlaping orbs in proc 0. Max # of overlaps:       4      22

InitMesh: MESH = 90 x 90 x 90 = 729000
InitMesh: Mesh cutoff (required, used) =   200.000   223.865 Ry
New grid distribution [1]: sub = 2

        iscf     Eharris(eV)        E_KS(eV)     FreeEng(eV)     dDmax    Ef(eV) dHmax(eV)
   scf:    1     -898.073875     -898.158036     -898.227346  0.012617 -5.711945  0.129039
   scf:    2     -898.136056     -898.151204     -898.219945  0.065623 -5.824226  0.129013
   scf:    3     -898.160152     -898.156643     -898.225829  0.031626 -5.786743  0.082227
   scf:    4     -898.157710     -898.158153     -898.227465  0.031717 -5.806229  0.028090
   scf:    5     -898.158101     -898.158191     -898.227503  0.007849 -5.806278  0.010687
   scf:    6     -898.158220     -898.158211     -898.227525  0.002447 -5.809309  0.006584
   scf:    7     -898.158220     -898.158217     -898.227532  0.001133 -5.814049  0.000411
   scf:    8     -898.158217     -898.158217     -898.227532  0.000100 -5.814265  0.000532

SCF Convergence by DM+H criterion
max |DM_out - DM_in|         :     0.0001004520
max |H_out - H_in|      (eV) :     0.0005322165
SCF cycle converged after 8 iterations

Using DM_out to compute the final energy and forces
No. of atoms with KB's overlaping orbs in proc 0. Max # of overlaps:       4      22

siesta: E_KS(eV) =             -898.1582

siesta: Atomic forces (eV/Ang):
----------------------------------------
   Tot   -0.002635   -0.000249   -0.000028
----------------------------------------
   Max    2.708640
   Res    1.412288    sqrt( Sum f_i^2 / 3N )
----------------------------------------
   Max    2.708640    constrained

Stress tensor Voigt[x,y,z,yz,xz,xy] (kbar):      -15.66       -0.27        0.13        0.16        1.07        0.68
(Free)E + p*V (eV/cell)     -894.9390
Target enthalpy (eV/cell)     -898.2275

siesta: Stress tensor (static) (eV/Ang**3):
         0.000389    0.000403    0.000732
         0.000403    0.000113    0.000154
         0.000732    0.000154    0.000198

siesta: Pressure (static):         -0.37370209  kBar

siesta: Stress tensor (total) (eV/Ang**3):
        -0.009775    0.000425    0.000666
         0.000425   -0.000169    0.000101
         0.000665    0.000101    0.000078

siesta: Pressure (total):          5.26881444  kBar

siesta: Temp_ion =   13550.153 K

                     ====================================
                        Begin MD step =      7
                     ====================================

outcell: Unit cell vectors (Ang):
       10.000004    0.000000    0.000000
        0.000000   10.000004    0.000000
        0.000000    0.000000   10.000004

outcell: Cell vector modules (Ang)   :   10.000004   10.000004   10.000004
outcell: Cell angles (23,13,12) (deg):     90.0000     90.0000     90.0000
outcell: Cell volume (Ang**3)        :   1000.0012
Gamma-point calculation with multiply-connected orbital pairs
Folding of H and S implicitly performed
<dSpData1D:S at geom step 7
  <sparsity:sparsity for geom step 7
    nrows_g=26 nrows=26 sparsity=1.0000 nnzs=676, refcount: 7>
  <dData1D:(new from dSpData1D) n=676, refcount: 1>
refcount: 1>
new_DM -- step:     7
Re-using DM from previous geometries...
Number of DMs in history: 1
 DM extrapolation coefficients: 
1   1.00000
New DM after history re-use:
<dSpData2D:SpM extrapolated using coords
  <sparsity:sparsity for geom step 7
    nrows_g=26 nrows=26 sparsity=1.0000 nnzs=676, refcount: 9>
  <dData2D:(temp array for extrapolation) n=676 m=1, refcount: 1>
refcount: 1>
Note: For starting DM, Qtot, Tr[D*S] =         14.00000000         14.02640576
No. of atoms with KB's overlaping orbs in proc 0. Max # of overlaps:       4      26

InitMesh: MESH = 90 x 90 x 90 = 729000
InitMesh: Mesh cutoff (required, used) =   200.000   223.865 Ry
New grid distribution [1]: sub = 2

        iscf     Eharris(eV)        E_KS(eV)     FreeEng(eV)     dDmax    Ef(eV) dHmax(eV)
   scf:    1     -898.375973     -898.271934     -898.341246  0.013002 -6.041981  0.338363
   scf:    2     -898.198332     -898.249790     -898.318880  0.065494 -5.829645  0.583103
   scf:    3     -898.282275     -898.272646     -898.341950  0.046208 -5.965283  0.223896
   scf:    4     -898.268546     -898.272106     -898.341292  0.042141 -5.873116  0.056376
   scf:    5     -898.273847     -898.273560     -898.342873  0.027025 -5.859989  0.019545
   scf:    6     -898.273591     -898.273588     -898.342902  0.003786 -5.863419  0.014841
   scf:    7     -898.273617     -898.273606     -898.342920  0.000449 -5.854066  0.000831
   scf:    8     -898.273606     -898.273606     -898.342920  0.000138 -5.854471  0.000822

SCF Convergence by DM+H criterion
max |DM_out - DM_in|         :     0.0001384848
max |H_out - H_in|      (eV) :     0.0008223003
SCF cycle converged after 8 iterations

Using DM_out to compute the final energy and forces
No. of atoms with KB's overlaping orbs in proc 0. Max # of overlaps:       4      26

siesta: E_KS(eV) =             -898.2736

siesta: Atomic forces (eV/Ang):
----------------------------------------
   Tot    0.003823   -0.000380   -0.000375
----------------------------------------
   Max    2.272011
   Res    1.276740    sqrt( Sum f_i^2 / 3N )
----------------------------------------
   Max    2.272011    constrained

Stress tensor Voigt[x,y,z,yz,xz,xy] (kbar):      -16.55       -0.21        0.23        0.26        1.16        0.66
(Free)E + p*V (eV/cell)     -894.9052
Target enthalpy (eV/cell)     -898.3429

siesta: Stress tensor (static) (eV/Ang**3):
        -0.000137    0.000332    0.000682
         0.000332    0.000120    0.000169
         0.000682    0.000169    0.000213

siesta: Pressure (static):         -0.10460237  kBar

siesta: Stress tensor (total) (eV/Ang**3):
        -0.010329    0.000412    0.000724
         0.000412   -0.000131    0.000159
         0.000724    0.000159    0.000146

siesta: Pressure (total):          5.50779231  kBar

siesta: Temp_ion =   13833.026 K

                     ====================================
                        Begin MD step =      8
                     ====================================

outcell: Unit cell vectors (Ang):
       10.000004    0.000000    0.000000
        0.000000   10.000004    0.000000
        0.000000    0.000000   10.000004

outcell: Cell vector modules (Ang)   :   10.000004   10.000004   10.000004
outcell: Cell angles (23,13,12) (deg):     90.0000     90.0000     90.0000
outcell: Cell volume (Ang**3)        :   1000.0012
<dSpData1D:S at geom step 8
  <sparsity:sparsity for geom step 8
    nrows_g=26 nrows=26 sparsity=1.0000 nnzs=676, refcount: 7>
  <dData1D:(new from dSpData1D) n=676, refcount: 1>
refcount: 1>
new_DM -- step:     8
Re-using DM from previous geometries...
Number of DMs in history: 1
 DM extrapolation coefficients: 
1   1.00000
New DM after history re-use:
<dSpData2D:SpM extrapolated using coords
  <sparsity:sparsity for geom step 8
    nrows_g=26 nrows=26 sparsity=1.0000 nnzs=676, refcount: 9>
  <dData2D:(temp array for extrapolation) n=676 m=1, refcount: 1>
refcount: 1>
Note: For starting DM, Qtot, Tr[D*S] =         14.00000000         14.05327462
No. of atoms with KB's overlaping orbs in proc 0. Max # of overlaps:       4      26

InitMesh: MESH = 90 x 90 x 90 = 729000
InitMesh: Mesh cutoff (required, used) =   200.000   223.865 Ry
New grid distribution [1]: sub = 2

        iscf     Eharris(eV)        E_KS(eV)     FreeEng(eV)     dDmax    Ef(eV) dHmax(eV)
   scf:    1     -898.669057     -898.435992     -898.505304  0.018160 -6.324915  0.737045
   scf:    2     -898.134613     -898.345777     -898.414865  0.078775 -5.850447  1.186115
   scf:    3     -898.480487     -898.439294     -898.508599  0.054015 -6.149856  0.484207
   scf:    4     -898.437546     -898.441695     -898.510839  0.040663 -5.941116  0.053850
   scf:    5     -898.443971     -898.443126     -898.512401  0.014740 -5.930238  0.042683
   scf:    6     -898.443460     -898.443561     -898.512876  0.014014 -5.933632  0.031387
   scf:    7     -898.443708     -898.443655     -898.512969  0.002197 -5.912325  0.004747
   scf:    8     -898.443657     -898.443657     -898.512972  0.000895 -5.913383  0.001587
   scf:    9     -898.443657     -898.443657     -898.512972  0.000454 -5.912687  0.001086
   scf:   10     -898.443657     -898.443657     -898.512972  0.000045 -5.912670  0.000850

SCF Convergence by DM+H criterion
max |DM_out - DM_in|         :     0.0000445584
max |H_out - H_in|      (eV) :     0.0008502746
SCF cycle converged after 10 iterations

Using DM_out to compute the final energy and forces
No. of atoms with KB's overlaping orbs in proc 0. Max # of overlaps:       4      26

siesta: E_KS(eV) =             -898.4437

siesta: Atomic forces (eV/Ang):
----------------------------------------
   Tot    0.001559   -0.000127   -0.000667
----------------------------------------
   Max    1.838344
   Res    0.873844    sqrt( Sum f_i^2 / 3N )
----------------------------------------
   Max    1.838344    constrained

Stress tensor Voigt[x,y,z,yz,xz,xy] (kbar):      -18.60       -0.27        0.16        0.20        0.69        0.21
(Free)E + p*V (eV/cell)     -894.6208
Target enthalpy (eV/cell)     -898.5130

siesta: Stress tensor (static) (eV/Ang**3):
        -0.001135    0.000055    0.000350
         0.000055    0.000061    0.000101
         0.000350    0.000101    0.000126

siesta: Pressure (static):          0.50631230  kBar

siesta: Stress tensor (total) (eV/Ang**3):
        -0.011607    0.000132    0.000428
         0.000132   -0.000167    0.000124
         0.000428    0.000124    0.000098

siesta: Pressure (total):          6.23587140  kBar

siesta: Temp_ion =   14233.975 K

                     ====================================
                        Begin MD step =      9
                     ====================================

outcell: Unit cell vectors (Ang):
       10.000004    0.000000    0.000000
        0.000000   10.000004    0.000000
        0.000000    0.000000   10.000004

outcell: Cell vector modules (Ang)   :   10.000004   10.000004   10.000004
outcell: Cell angles (23,13,12) (deg):     90.0000     90.0000     90.0000
outcell: Cell volume (Ang**3)        :   1000.0012
<dSpData1D:S at geom step 9
  <sparsity:sparsity for geom step 9
    nrows_g=26 nrows=26 sparsity=1.0000 nnzs=676, refcount: 7>
  <dData1D:(new from dSpData1D) n=676, refcount: 1>
refcount: 1>
new_DM -- step:     9
Re-using DM from previous geometries...
Number of DMs in history: 1
 DM extrapolation coefficients: 
1   1.00000
New DM after history re-use:
<dSpData2D:SpM extrapolated using coords
  <sparsity:sparsity for geom step 9
    nrows_g=26 nrows=26 sparsity=1.0000 nnzs=676, refcount: 9>
  <dData2D:(temp array for extrapolation) n=676 m=1, refcount: 1>
refcount: 1>
Note: For starting DM, Qtot, Tr[D*S] =         14.00000000         14.06142706
No. of atoms with KB's overlaping orbs in proc 0. Max # of overlaps:       4      26

InitMesh: MESH = 90 x 90 x 90 = 729000
InitMesh: Mesh cutoff (required, used) =   200.000   223.865 Ry
New grid distribution [1]: sub = 2

        iscf     Eharris(eV)        E_KS(eV)     FreeEng(eV)     dDmax    Ef(eV) dHmax(eV)
   scf:    1     -898.701362     -898.450656     -898.519966  0.021768 -6.446085  0.913566
   scf:    2     -897.804072     -898.255928     -898.324805  0.128309 -5.900956  1.731283
   scf:    3     -898.535285     -898.459755     -898.529057  0.094413 -6.275983  0.561130
   scf:    4     -898.453771     -898.461595     -898.530615  0.064171 -6.025689  0.107011
   scf:    5     -898.464934     -898.463562     -898.532754  0.018021 -6.011199  0.060473
   scf:    6     -898.464672     -898.464893     -898.534208  0.031359 -6.012249  0.040052
   scf:    7     -898.465071     -898.465017     -898.534329  0.004610 -5.986102  0.015516
   scf:    8     -898.465040     -898.465039     -898.534353  0.003224 -5.987477  0.001757
   scf:    9     -898.465039     -898.465039     -898.534353  0.000538 -5.986000  0.001137
   scf:   10     -898.465039     -898.465039     -898.534353  0.000407 -5.986605  0.000467
   scf:   11     -898.465039     -898.465039     -898.534353  0.000045 -5.986606  0.000444

SCF Convergence by DM+H criterion
max |DM_out - DM_in|         :     0.0000446296
max |H_out - H_in|      (eV) :     0.0004438267
SCF cycle converged after 11 iterations

Using DM_out to compute the final energy and forces
No. of atoms with KB's overlaping orbs in proc 0. Max # of overlaps:       4      26

siesta: E_KS(eV) =             -898.4650

siesta: Atomic forces (eV/Ang):
----------------------------------------
   Tot   -0.002023   -0.000868   -0.000126
----------------------------------------
   Max    1.470878
   Res    0.818542    sqrt( Sum f_i^2 / 3N )
----------------------------------------
   Max    1.470878    constrained

Stress tensor Voigt[x,y,z,yz,xz,xy] (kbar):      -21.40       -0.55       -0.26       -0.13       -0.45       -0.74
(Free)E + p*V (eV/cell)     -893.9136
Target enthalpy (eV/cell)     -898.5344

siesta: Stress tensor (static) (eV/Ang**3):
        -0.002554   -0.000487   -0.000338
        -0.000487   -0.000122   -0.000122
        -0.000338   -0.000122   -0.000147

siesta: Pressure (static):          1.50766865  kBar

siesta: Stress tensor (total) (eV/Ang**3):
        -0.013360   -0.000459   -0.000280
        -0.000459   -0.000343   -0.000083
        -0.000280   -0.000083   -0.000160

siesta: Pressure (total):          7.40329842  kBar

siesta: Temp_ion =   14269.109 K

                     ====================================
                        Begin MD step =     10
                     ====================================

outcell: Unit cell vectors (Ang):
       10.000004    0.000000    0.000000
        0.000000   10.000004    0.000000
        0.000000    0.000000   10.000004

outcell: Cell vector modules (Ang)   :   10.000004   10.000004   10.000004
outcell: Cell angles (23,13,12) (deg):     90.0000     90.0000     90.0000
outcell: Cell volume (Ang**3)        :   1000.0012
<dSpData1D:S at geom step 10
  <sparsity:sparsity for geom step 10
    nrows_g=26 nrows=26 sparsity=1.0000 nnzs=676, refcount: 7>
  <dData1D:(new from dSpData1D) n=676, refcount: 1>
refcount: 1>
new_DM -- step:    10
Re-using DM from previous geometries...
Number of DMs in history: 1
 DM extrapolation coefficients: 
1   1.00000
New DM after history re-use:
<dSpData2D:SpM extrapolated using coords
  <sparsity:sparsity for geom step 10
    nrows_g=26 nrows=26 sparsity=1.0000 nnzs=676, refcount: 9>
  <dData2D:(temp array for extrapolation) n=676 m=1, refcount: 1>
refcount: 1>
Note: For starting DM, Qtot, Tr[D*S] =         14.00000000         14.04129902
No. of atoms with KB's overlaping orbs in proc 0. Max # of overlaps:       4      26

InitMesh: MESH = 90 x 90 x 90 = 729000
InitMesh: Mesh cutoff (required, used) =   200.000   223.865 Ry
New grid distribution [1]: sub = 2

        iscf     Eharris(eV)        E_KS(eV)     FreeEng(eV)     dDmax    Ef(eV) dHmax(eV)
   scf:    1     -898.431024     -898.281757     -898.351054  0.023207 -6.327429  0.705633
   scf:    2     -897.451332     -898.029240     -898.097382  0.108689 -6.009585  1.850143
   scf:    3     -898.360962     -898.294295     -898.363600  0.086487 -6.255603  0.314928
   scf:    4     -898.278624     -898.290882     -898.359690  0.064037 -6.124496  0.090501
   scf:    5     -898.295239     -898.293307     -898.362338  0.014101 -6.104263  0.056968
   scf:    6     -898.296147     -898.296146     -898.365459  0.038640 -6.096800  0.022830
   scf:    7     -898.295967     -898.296101     -898.365400  0.006416 -6.077509  0.013012
   scf:    8     -898.296185     -898.296192     -898.365505  0.007065 -6.078964  0.001250
   scf:    9     -898.296192     -898.296192     -898.365505  0.000299 -6.078427  0.001393
   scf:   10     -898.296192     -898.296192     -898.365505  0.000258 -6.078536  0.000994

SCF Convergence by DM+H criterion
max |DM_out - DM_in|         :     0.0002581990
max |H_out - H_in|      (eV) :     0.0009937162
SCF cycle converged after 10 iterations

Using DM_out to compute the final energy and forces
No. of atoms with KB's overlaping orbs in proc 0. Max # of overlaps:       4      26

siesta: E_KS(eV) =             -898.2962

siesta: Atomic forces (eV/Ang):
----------------------------------------
   Tot    0.000441   -0.000999   -0.000979
----------------------------------------
   Max    3.384341
   Res    1.697804    sqrt( Sum f_i^2 / 3N )
----------------------------------------
   Max    3.384341    constrained

Stress tensor Voigt[x,y,z,yz,xz,xy] (kbar):      -22.87       -1.00       -0.90       -0.67       -1.58       -1.64
(Free)E + p*V (eV/cell)     -893.2116
Target enthalpy (eV/cell)     -898.3655

siesta: Stress tensor (static) (eV/Ang**3):
        -0.003450   -0.001029   -0.001056
        -0.001029   -0.000395   -0.000455
        -0.001056   -0.000455   -0.000550

siesta: Pressure (static):          2.34722523  kBar

siesta: Stress tensor (total) (eV/Ang**3):
        -0.014276   -0.001025   -0.000988
        -0.001024   -0.000622   -0.000416
        -0.000988   -0.000416   -0.000564

siesta: Pressure (total):          8.25740745  kBar

siesta: Temp_ion =   13916.449 K

                     ====================================
                        Begin MD step =     11
                     ====================================

outcell: Unit cell vectors (Ang):
       10.000004    0.000000    0.000000
        0.000000   10.000004    0.000000
        0.000000    0.000000   10.000004

outcell: Cell vector modules (Ang)   :   10.000004   10.000004   10.000004
outcell: Cell angles (23,13,12) (deg):     90.0000     90.0000     90.0000
outcell: Cell volume (Ang**3)        :   1000.0012
<dSpData1D:S at geom step 11
  <sparsity:sparsity for geom step 11
    nrows_g=26 nrows=26 sparsity=1.0000 nnzs=676, refcount: 7>
  <dData1D:(new from dSpData1D) n=676, refcount: 1>
refcount: 1>
new_DM -- step:    11
Re-using DM from previous geometries...
Number of DMs in history: 1
 DM extrapolation coefficients: 
1   1.00000
New DM after history re-use:
<dSpData2D:SpM extrapolated using coords
  <sparsity:sparsity for geom step 11
    nrows_g=26 nrows=26 sparsity=1.0000 nnzs=676, refcount: 9>
  <dData2D:(temp array for extrapolation) n=676 m=1, refcount: 1>
refcount: 1>
No. of atoms with KB's overlaping orbs in proc 0. Max # of overlaps:       4      26

InitMesh: MESH = 90 x 90 x 90 = 729000
InitMesh: Mesh cutoff (required, used) =   200.000   223.865 Ry
New grid distribution [1]: sub = 2

        iscf     Eharris(eV)        E_KS(eV)     FreeEng(eV)     dDmax    Ef(eV) dHmax(eV)
   scf:    1     -898.273425     -898.319442     -898.388568  0.049270 -6.091216  0.439210
   scf:    2     -897.198508     -897.972592     -898.027219  0.352203 -6.201150  1.666346
   scf:    3     -898.389028     -898.328041     -898.397281  0.296443 -6.114774  0.104058
   scf:    4     -898.323156     -898.328386     -898.397527  0.054789 -6.129742  0.086235
   scf:    5     -898.330091     -898.329534     -898.398811  0.017557 -6.130430  0.094055
   scf:    6     -898.329061     -898.329727     -898.399039  0.019553 -6.196970  0.016260
   scf:    7     -898.329537     -898.329888     -898.399178  0.016399 -6.193179  0.016279
   scf:    8     -898.329949     -898.329960     -898.399269  0.006785 -6.202619  0.001057
   scf:    9     -898.329961     -898.329961     -898.399270  0.000799 -6.202638  0.000575
   scf:   10     -898.329961     -898.329961     -898.399270  0.000080 -6.202624  0.000541

SCF Convergence by DM+H criterion
max |DM_out - DM_in|         :     0.0000802558
max |H_out - H_in|      (eV) :     0.0005406580
SCF cycle converged after 10 iterations

Using DM_out to compute the final energy and forces
No. of atoms with KB's overlaping orbs in proc 0. Max # of overlaps:       4      26

siesta: E_KS(eV) =             -898.3300

siesta: Atomic forces (eV/Ang):
----------------------------------------
   Tot   -0.000032   -0.001297   -0.000290
----------------------------------------
   Max    2.675056
   Res    1.354162    sqrt( Sum f_i^2 / 3N )
----------------------------------------
   Max    2.675056    constrained

Stress tensor Voigt[x,y,z,yz,xz,xy] (kbar):      -21.25       -1.10       -1.03       -0.78       -1.30       -1.33
(Free)E + p*V (eV/cell)     -893.5357
Target enthalpy (eV/cell)     -898.3993

siesta: Stress tensor (static) (eV/Ang**3):
        -0.002793   -0.000846   -0.000931
        -0.000846   -0.000422   -0.000488
        -0.000931   -0.000488   -0.000583

siesta: Pressure (static):          2.02820482  kBar

siesta: Stress tensor (total) (eV/Ang**3):
        -0.013260   -0.000832   -0.000814
        -0.000832   -0.000688   -0.000488
        -0.000814   -0.000488   -0.000642

siesta: Pressure (total):          7.79231734  kBar

siesta: Temp_ion =   13957.406 K

                     ====================================
                        Begin MD step =     12
                     ====================================

outcell: Unit cell vectors (Ang):
       10.000004    0.000000    0.000000
        0.000000   10.000004    0.000000
        0.000000    0.000000   10.000004

outcell: Cell vector modules (Ang)   :   10.000004   10.000004   10.000004
outcell: Cell angles (23,13,12) (deg):     90.0000     90.0000     90.0000
outcell: Cell volume (Ang**3)        :   1000.0012
<dSpData1D:S at geom step 12
  <sparsity:sparsity for geom step 12
    nrows_g=26 nrows=26 sparsity=1.0000 nnzs=676, refcount: 7>
  <dData1D:(new from dSpData1D) n=676, refcount: 1>
refcount: 1>
new_DM -- step:    12
Re-using DM from previous geometries...
Number of DMs in history: 1
 DM extrapolation coefficients: 
1   1.00000
New DM after history re-use:
<dSpData2D:SpM extrapolated using coords
  <sparsity:sparsity for geom step 12
    nrows_g=26 nrows=26 sparsity=1.0000 nnzs=676, refcount: 9>
  <dData2D:(temp array for extrapolation) n=676 m=1, refcount: 1>
refcount: 1>
Note: For starting DM, Qtot, Tr[D*S] =         14.00000000         13.97164839
No. of atoms with KB's overlaping orbs in proc 0. Max # of overlaps:       4      26

InitMesh: MESH = 90 x 90 x 90 = 729000
InitMesh: Mesh cutoff (required, used) =   200.000   223.865 Ry
New grid distribution [1]: sub = 2

        iscf     Eharris(eV)        E_KS(eV)     FreeEng(eV)     dDmax    Ef(eV) dHmax(eV)
   scf:    1     -898.001113     -898.350092     -898.417889  0.095148 -5.964269  0.738574
   scf:    2     -896.394312     -897.762975     -897.776748  0.680467 -6.502115  1.297120
   scf:    3     -898.566314     -898.278484     -898.340887  0.359935 -6.145827  0.482445
   scf:    4     -898.144457     -898.215534     -898.272549  0.070973 -6.157099  0.522871
   scf:    5     -896.908083     -898.029690     -898.062746  0.759631 -6.410687  0.562941
   scf:    6     -898.197107     -898.116517     -898.159674  0.062649 -6.359917  0.481340
   scf:    7     -897.488471     -898.210880     -898.266998  0.703642 -6.368824  0.374644
   scf:    8     -898.312708     -898.264484     -898.325361  0.057401 -6.371021  0.304632
   scf:    9     -898.306261     -898.285971     -898.348689  0.027030 -6.371995  0.271868
   scf:   10     -898.365795     -898.371210     -898.440457  0.233990 -6.372696  0.013356
   scf:   11     -898.371034     -898.371247     -898.440549  0.012348 -6.373171  0.011652
   scf:   12     -898.368625     -898.370530     -898.439658  0.026164 -6.376262  0.026422
   scf:   13     -898.371056     -898.371272     -898.440565  0.024194 -6.379059  0.007009
   scf:   14     -898.371278     -898.371287     -898.440566  0.003858 -6.382662  0.004589
   scf:   15     -898.371186     -898.371264     -898.440564  0.005114 -6.379430  0.004741
   scf:   16     -898.371305     -898.371295     -898.440582  0.003441 -6.382461  0.001250
   scf:   17     -898.371295     -898.371295     -898.440582  0.000041 -6.382455  0.001276
   scf:   18     -898.371294     -898.371295     -898.440582  0.000134 -6.382446  0.001291
   scf:   19     -898.371292     -898.371293     -898.440583  0.000380 -6.383258  0.000579
   scf:   20     -898.371293     -898.371293     -898.440583  0.000011 -6.383241  0.000527

SCF Convergence by DM+H criterion
max |DM_out - DM_in|         :     0.0000114149
max |H_out - H_in|      (eV) :     0.0005272470
SCF cycle converged after 20 iterations

Using DM_out to compute the final energy and forces
No. of atoms with KB's overlaping orbs in proc 0. Max # of overlaps:       4      26

siesta: E_KS(eV) =             -898.3713

siesta: Atomic forces (eV/Ang):
----------------------------------------
   Tot    0.001151   -0.000162    0.000208
----------------------------------------
   Max    0.607848
   Res    0.274759    sqrt( Sum f_i^2 / 3N )
----------------------------------------
   Max    0.607848    constrained

Stress tensor Voigt[x,y,z,yz,xz,xy] (kbar):      -19.44       -0.75       -0.47       -0.33       -0.09       -0.18
(Free)E + p*V (eV/cell)     -894.1434
Target enthalpy (eV/cell)     -898.4406

siesta: Stress tensor (static) (eV/Ang**3):
        -0.001906   -0.000031   -0.000088
        -0.000031   -0.000084   -0.000075
        -0.000088   -0.000075   -0.000076

siesta: Pressure (static):          1.10371613  kBar

siesta: Stress tensor (total) (eV/Ang**3):
        -0.012132   -0.000110   -0.000057
        -0.000110   -0.000467   -0.000208
        -0.000057   -0.000208   -0.000292

siesta: Pressure (total):          6.88479265  kBar

siesta: Temp_ion =   13997.080 K

                     ====================================
                        Begin MD step =     13
                     ====================================

outcell: Unit cell vectors (Ang):
       10.000004    0.000000    0.000000
        0.000000   10.000004    0.000000
        0.000000    0.000000   10.000004

outcell: Cell vector modules (Ang)   :   10.000004   10.000004   10.000004
outcell: Cell angles (23,13,12) (deg):     90.0000     90.0000     90.0000
outcell: Cell volume (Ang**3)        :   1000.0012
<dSpData1D:S at geom step 13
  <sparsity:sparsity for geom step 13
    nrows_g=26 nrows=26 sparsity=1.0000 nnzs=676, refcount: 7>
  <dData1D:(new from dSpData1D) n=676, refcount: 1>
refcount: 1>
new_DM -- step:    13
Re-using DM from previous geometries...
Number of DMs in history: 1
 DM extrapolation coefficients: 
1   1.00000
New DM after history re-use:
<dSpData2D:SpM extrapolated using coords
  <sparsity:sparsity for geom step 13
    nrows_g=26 nrows=26 sparsity=1.0000 nnzs=676, refcount: 9>
  <dData2D:(temp array for extrapolation) n=676 m=1, refcount: 1>
refcount: 1>
Note: For starting DM, Qtot, Tr[D*S] =         14.00000000         13.95479391
No. of atoms with KB's overlaping orbs in proc 0. Max # of overlaps:       4      26

InitMesh: MESH = 90 x 90 x 90 = 729000
InitMesh: Mesh cutoff (required, used) =   200.000   223.865 Ry
New grid distribution [1]: sub = 2

        iscf     Eharris(eV)        E_KS(eV)     FreeEng(eV)     dDmax    Ef(eV) dHmax(eV)
   scf:    1     -897.152709     -897.969335     -898.030660  0.221355 -6.078487  0.884130
   scf:    2     -895.703952     -897.397061     -897.397462  0.834555 -6.910930  0.919155
   scf:    3     -897.661417     -897.536144     -897.555916  0.058384 -6.470276  0.716647
   scf:    4     -897.337126     -897.438905     -897.443904  0.049442 -6.595924  0.822283
   scf:    5     -897.538048     -897.489004     -897.502002  0.025056 -6.589103  0.758989
   scf:    6     -897.565831     -897.527744     -897.546283  0.020651 -6.588766  0.722469
   scf:    7     -895.487074     -897.533621     -897.533800  1.142545 -6.583288  0.875957
   scf:    8     -897.543561     -897.538601     -897.539094  0.001186 -6.572370  0.840064
   scf:    9     -897.425245     -897.482292     -897.482292  0.012783 -6.492752  1.220700
   scf:   10     -897.464106     -897.473260     -897.473260  0.001625 -6.488907  1.268253
   scf:   11     -897.493919     -897.483600     -897.483600  0.001973 -6.498117  1.209750
   scf:   12     -898.136063     -897.850719     -897.896554  0.204574 -6.573111  0.440498
   scf:   13     -895.299706     -897.367263     -897.367264  0.998182 -6.651801  1.170298
   scf:   14     -897.953251     -897.683017     -897.720083  0.155221 -6.582311  0.591099
   scf:   15     -895.791028     -897.572486     -897.578970  1.033223 -6.555526  0.731072
   scf:   16     -894.985576     -897.391871     -897.391892  1.185870 -6.618479  1.029196
   scf:   17     -897.652995     -897.526102     -897.544329  0.058315 -6.584032  0.724797
   scf:   18     -898.232406     -898.009826     -898.076413  0.407955 -6.573181  0.203966
   scf:   19     -897.545957     -897.935317     -897.990623  0.445536 -6.568409  0.335924
   scf:   20     -898.069391     -898.055826     -898.124761  0.259139 -6.571572  0.052960
   scf:   21     -897.674058     -897.923477     -897.977497  0.272090 -6.568803  0.352315
   scf:   22     -897.913376     -898.039924     -898.108557  0.390504 -6.575192  0.120736
   scf:   23     -898.049386     -898.044878     -898.113790  0.016746 -6.577183  0.100296
   scf:   24     -898.042868     -898.054683     -898.123378  0.116712 -6.575947  0.049453
   scf:   25     -898.046824     -898.051276     -898.119452  0.024648 -6.578934  0.070125
   scf:   26     -898.001812     -898.030526     -898.096206  0.070314 -6.565627  0.156401
   scf:   27     -898.059632     -898.056311     -898.125379  0.118506 -6.600195  0.011691
   scf:   28     -898.056281     -898.056411     -898.125598  0.011977 -6.603695  0.003541
   scf:   29     -898.056437     -898.056428     -898.125596  0.002317 -6.602066  0.002874
   scf:   30     -898.056410     -898.056420     -898.125599  0.001183 -6.602099  0.002565
   scf:   31     -898.056432     -898.056427     -898.125597  0.000952 -6.600775  0.003833
   scf:   32     -898.056416     -898.056423     -898.125600  0.000970 -6.601321  0.002926
   scf:   33     -898.056426     -898.056425     -898.125602  0.000482 -6.603554  0.001505
   scf:   34     -898.056424     -898.056424     -898.125602  0.000037 -6.603548  0.001408
   scf:   35     -898.056421     -898.056423     -898.125603  0.000299 -6.603110  0.000307

SCF Convergence by DM+H criterion
max |DM_out - DM_in|         :     0.0002985203
max |H_out - H_in|      (eV) :     0.0003065467
SCF cycle converged after 35 iterations

Using DM_out to compute the final energy and forces
No. of atoms with KB's overlaping orbs in proc 0. Max # of overlaps:       4      26

siesta: E_KS(eV) =             -898.0564

siesta: Atomic forces (eV/Ang):
----------------------------------------
   Tot    0.000228   -0.000276   -0.001205
----------------------------------------
   Max    2.075524
   Res    0.903315    sqrt( Sum f_i^2 / 3N )
----------------------------------------
   Max    2.075524    constrained

Stress tensor Voigt[x,y,z,yz,xz,xy] (kbar):      -19.71       -0.36        0.21        0.21        0.89        0.83
(Free)E + p*V (eV/cell)     -893.9920
Target enthalpy (eV/cell)     -898.1256

siesta: Stress tensor (static) (eV/Ang**3):
        -0.002271    0.000700    0.000634
         0.000700    0.000253    0.000371
         0.000634    0.000371    0.000473

siesta: Pressure (static):          0.82520313  kBar

siesta: Stress tensor (total) (eV/Ang**3):
        -0.012305    0.000515    0.000556
         0.000515   -0.000226    0.000131
         0.000556    0.000131    0.000130

siesta: Pressure (total):          6.62271255  kBar

siesta: Temp_ion =   13208.722 K

                     ====================================
                        Begin MD step =     14
                     ====================================

outcell: Unit cell vectors (Ang):
       10.000004    0.000000    0.000000
        0.000000   10.000004    0.000000
        0.000000    0.000000   10.000004

outcell: Cell vector modules (Ang)   :   10.000004   10.000004   10.000004
outcell: Cell angles (23,13,12) (deg):     90.0000     90.0000     90.0000
outcell: Cell volume (Ang**3)        :   1000.0012
<dSpData1D:S at geom step 14
  <sparsity:sparsity for geom step 14
    nrows_g=26 nrows=26 sparsity=1.0000 nnzs=676, refcount: 7>
  <dData1D:(new from dSpData1D) n=676, refcount: 1>
refcount: 1>
new_DM -- step:    14
Re-using DM from previous geometries...
Number of DMs in history: 1
 DM extrapolation coefficients: 
1   1.00000
New DM after history re-use:
<dSpData2D:SpM extrapolated using coords
  <sparsity:sparsity for geom step 14
    nrows_g=26 nrows=26 sparsity=1.0000 nnzs=676, refcount: 9>
  <dData2D:(temp array for extrapolation) n=676 m=1, refcount: 1>
refcount: 1>
Note: For starting DM, Qtot, Tr[D*S] =         14.00000000         13.95653740
No. of atoms with KB's overlaping orbs in proc 0. Max # of overlaps:       4      26

InitMesh: MESH = 90 x 90 x 90 = 729000
InitMesh: Mesh cutoff (required, used) =   200.000   223.865 Ry
New grid distribution [1]: sub = 2

        iscf     Eharris(eV)        E_KS(eV)     FreeEng(eV)     dDmax    Ef(eV) dHmax(eV)
   scf:    1     -896.007028     -897.300364     -897.345833  0.358437 -6.413705  0.958919
   scf:    2     -894.365520     -896.674477     -896.674492  0.960266 -7.183532  1.769623
   scf:    3     -897.075472     -896.917563     -896.937674  0.084572 -6.685752  0.757599
   scf:    4     -896.851528     -896.884790     -896.900518  0.016313 -6.701810  0.785363
   scf:    5     -896.692821     -896.790655     -896.792502  0.041948 -6.755036  0.912244
   scf:    6     -896.773643     -896.782212     -896.783202  0.003126 -6.754633  0.938172
   scf:    7     -895.150198     -897.063035     -897.064575  1.189899 -6.707521  0.753704
   scf:    8     -897.081746     -897.072436     -897.075765  0.004909 -6.709905  0.719839
   scf:    9     -896.992027     -897.032737     -897.032750  0.009628 -6.662268  0.926605
   scf:   10     -897.002942     -897.018093     -897.018094  0.005693 -6.627718  1.015310
   scf:   11     -897.098309     -897.058886     -897.059949  0.015465 -6.675810  0.767410
   scf:   12     -894.349661     -896.798390     -896.801378  1.184797 -6.766451  0.890119
   scf:   13     -897.635519     -897.293904     -897.350567  0.309681 -6.738101  0.425151
   scf:   14     -896.484115     -897.287323     -897.326032  0.714470 -6.721953  0.449461
   scf:   15     -895.637272     -897.068074     -897.104727  0.881121 -6.739439  0.634021
   scf:   16     -896.464035     -896.784144     -896.785135  0.147544 -6.776139  0.935759
   scf:   17     -897.521622     -897.200132     -897.248973  0.238317 -6.740071  0.519058
   scf:   18     -896.633949     -896.937913     -896.960028  0.164725 -6.750524  0.737187
   scf:   19     -895.481005     -897.117669     -897.130343  1.084372 -6.696958  0.640538
   scf:   20     -897.086324     -897.102085     -897.111794  0.009257 -6.692705  0.661541
   scf:   21     -897.365696     -897.241527     -897.274035  0.097810 -6.707414  0.503672
   scf:   22     -896.023221     -897.187986     -897.236032  0.842328 -6.736090  0.531637
   scf:   23     -897.541581     -897.391730     -897.455856  0.185816 -6.729255  0.303485
   scf:   24     -897.518654     -897.488780     -897.557347  0.205577 -6.728806  0.085636
   scf:   25     -897.440588     -897.469558     -897.538130  0.075914 -6.723020  0.146962
   scf:   26     -897.455128     -897.488902     -897.555460  0.183659 -6.722310  0.089673
   scf:   27     -897.461009     -897.476707     -897.541156  0.047256 -6.721679  0.133404
   scf:   28     -897.463434     -897.489888     -897.558821  0.158520 -6.725201  0.058728
   scf:   29     -897.494738     -897.494386     -897.562712  0.051083 -6.722395  0.043167
   scf:   30     -897.493342     -897.494136     -897.562122  0.017889 -6.730139  0.028705
   scf:   31     -897.494635     -897.494549     -897.562880  0.014235 -6.732680  0.022181
   scf:   32     -897.485422     -897.491614     -897.560684  0.044391 -6.749922  0.045947
   scf:   33     -897.495014     -897.494551     -897.563050  0.039231 -6.744909  0.007858
   scf:   34     -897.494521     -897.494537     -897.563058  0.001057 -6.745552  0.007564
   scf:   35     -897.494567     -897.494556     -897.563061  0.002068 -6.747874  0.003373
   scf:   36     -897.494429     -897.494500     -897.563067  0.002384 -6.747512  0.001761
   scf:   37     -897.494549     -897.494526     -897.563069  0.001053 -6.747002  0.001072
   scf:   38     -897.494526     -897.494526     -897.563069  0.000113 -6.747033  0.000933

SCF Convergence by DM+H criterion
max |DM_out - DM_in|         :     0.0001134556
max |H_out - H_in|      (eV) :     0.0009334942
SCF cycle converged after 38 iterations

Using DM_out to compute the final energy and forces
No. of atoms with KB's overlaping orbs in proc 0. Max # of overlaps:       4      26

siesta: E_KS(eV) =             -897.4945

siesta: Atomic forces (eV/Ang):
----------------------------------------
   Tot   -0.000200    0.000296    0.000790
----------------------------------------
   Max    3.000548
   Res    1.335475    sqrt( Sum f_i^2 / 3N )
----------------------------------------
   Max    3.000548    constrained

Stress tensor Voigt[x,y,z,yz,xz,xy] (kbar):      -21.67       -0.26        0.67        0.58        1.37        1.36
(Free)E + p*V (eV/cell)     -893.1391
Target enthalpy (eV/cell)     -897.5631

siesta: Stress tensor (static) (eV/Ang**3):
        -0.004026    0.001022    0.000899
         0.001022    0.000289    0.000560
         0.000899    0.000560    0.000709

siesta: Pressure (static):          1.61697396  kBar

siesta: Stress tensor (total) (eV/Ang**3):
        -0.013527    0.000850    0.000856
         0.000851   -0.000164    0.000360
         0.000856    0.000360    0.000419

siesta: Pressure (total):          7.08795004  kBar

siesta: Temp_ion =   11782.541 K

                     ====================================
                        Begin MD step =     15
                     ====================================

outcell: Unit cell vectors (Ang):
       10.000004    0.000000    0.000000
        0.000000   10.000004    0.000000
        0.000000    0.000000   10.000004

outcell: Cell vector modules (Ang)   :   10.000004   10.000004   10.000004
outcell: Cell angles (23,13,12) (deg):     90.0000     90.0000     90.0000
outcell: Cell volume (Ang**3)        :   1000.0012
<dSpData1D:S at geom step 15
  <sparsity:sparsity for geom step 15
    nrows_g=26 nrows=26 sparsity=1.0000 nnzs=676, refcount: 7>
  <dData1D:(new from dSpData1D) n=676, refcount: 1>
refcount: 1>
new_DM -- step:    15
Re-using DM from previous geometries...
Number of DMs in history: 1
 DM extrapolation coefficients: 
1   1.00000
New DM after history re-use:
<dSpData2D:SpM extrapolated using coords
  <sparsity:sparsity for geom step 15
    nrows_g=26 nrows=26 sparsity=1.0000 nnzs=676, refcount: 9>
  <dData2D:(temp array for extrapolation) n=676 m=1, refcount: 1>
refcount: 1>
Note: For starting DM, Qtot, Tr[D*S] =         14.00000000         13.96655885
No. of atoms with KB's overlaping orbs in proc 0. Max # of overlaps:       4      26

InitMesh: MESH = 90 x 90 x 90 = 729000
InitMesh: Mesh cutoff (required, used) =   200.000   223.865 Ry
New grid distribution [1]: sub = 2

        iscf     Eharris(eV)        E_KS(eV)     FreeEng(eV)     dDmax    Ef(eV) dHmax(eV)
   scf:    1     -895.036219     -896.596968     -896.612726  0.361673 -6.708525  1.086021
   scf:    2     -889.750760     -894.781476     -894.781480  0.995462 -6.169147  5.410397
   scf:    3     -897.435840     -896.709330     -896.775873  0.644512 -6.618376  1.424677
   scf:    4     -896.534415     -896.762253     -896.806133  0.322377 -6.667244  0.369445
   scf:    5     -896.791087     -896.777302     -896.824503  0.019690 -6.663977  0.347085
   scf:    6     -896.079687     -896.647257     -896.712405  0.504379 -6.676052  0.533337
   scf:    7     -896.875597     -896.785437     -896.853849  0.149163 -6.680956  0.242275
   scf:    8     -895.252613     -896.217436     -896.261071  0.432304 -6.594413  1.963490
   scf:    9     -897.026378     -896.805586     -896.874262  0.358875 -6.656180  0.478407
   scf:   10     -896.504395     -896.759189     -896.803331  0.258184 -6.691359  0.669562
   scf:   11     -896.846177     -896.808916     -896.862319  0.059772 -6.686358  0.356978
   scf:   12     -896.823005     -896.836112     -896.900538  0.118885 -6.669888  0.216308
   scf:   13     -896.836823     -896.836493     -896.900657  0.004188 -6.670319  0.195468
   scf:   14     -896.837638     -896.837163     -896.900888  0.010617 -6.670267  0.163424
   scf:   15     -896.835341     -896.838417     -896.902822  0.024850 -6.706282  0.096712
   scf:   16     -896.838406     -896.838760     -896.903600  0.016236 -6.699530  0.012524
   scf:   17     -896.838785     -896.838773     -896.903598  0.000443 -6.700586  0.014821
[...]
   scf:   39     -889.322244     -887.895982     -887.913962  0.093514 -5.638491  9.993211
   scf:   40     -860.033115     -887.391245     -887.391245  1.855099 -6.510288 13.323051
   scf:   41     -890.903092     -889.201566     -889.201566  0.094980 -5.447571 10.571328
   scf:   42     -890.415042     -889.816284     -889.816284  0.057185 -5.479557  9.552552
   scf:   43     -889.380695     -889.599342     -889.599342  0.021954 -5.458937  9.844811
   scf:   44     -889.450153     -889.525445     -889.525445  0.008027 -5.547766 10.043670
   scf:   45     -848.826696     -885.329608     -885.329847  1.890836 -5.155184 13.199666
   scf:   46     -885.469474     -885.406989     -885.407107  0.023476 -5.071094 12.962926
   scf:   47     -885.584236     -885.498364     -885.498446  0.013886 -5.083848 12.707371
   scf:   48     -886.149393     -885.826352     -885.826504  0.023184 -5.182235 12.266684
   scf:   49     -866.409231     -889.895708     -889.895708  1.883099 -5.238603  9.316200
   scf:   50     -891.634321     -890.784289     -890.784349  0.112408 -5.195098  7.971066
   scf:   51     -893.847085     -892.400372     -892.418503  0.148745 -5.262629  5.954971
   scf:   52     -887.547996     -890.125103     -890.125103  0.188214 -5.288867  9.094440
   scf:   53     -890.004518     -890.064947     -890.064947  0.007040 -5.264488  9.127936
   scf:   54     -889.658823     -894.846891     -894.915420  1.088112 -5.361237  3.555394
   scf:   55     -875.324951     -889.646214     -889.646214  1.108831 -5.255784  9.703176
   scf:   56     -889.980991     -889.814130     -889.814130  0.016863 -5.336982  9.500374
   scf:   57     -889.500064     -889.657555     -889.657555  0.017358 -5.248172  9.723280
   scf:   58     -890.244741     -889.952999     -889.952999  0.033345 -5.421276  9.468946
   scf:   59     -890.206163     -890.079890     -890.079890  0.016541 -5.435671  9.292975
   scf:   60     -891.272233     -890.685507     -890.685766  0.089312 -5.459782  8.422183
   scf:   61     -835.093831     -880.849941     -880.849941  1.964891 -3.645962 18.163437
   scf:   62     -881.502938     -881.178797     -881.178797  0.023535 -3.701705 17.848903
   scf:   63     -883.585317     -882.406910     -882.406910  0.037079 -4.078273 16.427476
   scf:   64     -887.343187     -884.952366     -884.952399  0.130379 -5.020621 13.423403
   scf:   65     -865.316043     -889.724255     -889.724255  1.924689 -5.200996  9.529024
   scf:   66     -889.880214     -889.802399     -889.802399  0.005915 -5.161723  9.394117
   scf:   67     -888.631167     -889.222465     -889.222465  0.053806 -5.252230 10.219163
   scf:   68     -889.969845     -889.598511     -889.598511  0.034339 -5.089387  9.666199
   scf:   69     -889.707407     -889.653076     -889.653076  0.003373 -5.051933  9.540877
   scf:   70     -846.258228     -884.575663     -884.575686  1.926668 -4.775743 14.207545
   scf:   71     -884.430180     -884.503558     -884.503571  0.013335 -4.722095 14.247263
   scf:   72     -886.109527     -885.319762     -885.320048  0.096732 -4.946075 13.609932
   scf:   73     -886.882336     -886.110125     -886.114553  0.046626 -5.076521 12.775011
   scf:   74     -887.448042     -886.786478     -886.798788  0.043214 -5.052148 12.418809
   scf:   75     -884.455052     -885.661360     -885.661451  0.114391 -4.970485 12.884508
   scf:   76     -853.928913     -885.831318     -885.831318  1.936761 -7.891322 15.814106
   scf:   77     -891.376890     -888.756337     -888.756337  0.162624 -5.457379 11.145020
   scf:   78     -896.036825     -892.830474     -892.857696  0.277346 -5.085199  5.442820
   scf:   79     -889.081055     -891.054659     -891.056049  0.160996 -5.231235  7.665889
   scf:   80     -890.036540     -890.553127     -890.553145  0.071956 -5.238686  8.401822
   scf:   81     -890.213575     -890.385536     -890.385538  0.035435 -5.143248  8.640097
   scf:   82     -816.831906     -875.440999     -875.440999  2.000554 -2.495992 22.985839
   scf:   83     -890.275838     -883.558542     -883.558543  0.203963 -4.048930 15.565865
   scf:   84     -891.422384     -887.708858     -887.729675  0.183666 -5.270329 11.271680
   scf:   85     -886.480662     -887.102569     -887.116164  0.038435 -5.201020 11.601843
   scf:   86     -887.998124     -887.553509     -887.572059  0.027004 -5.201221 11.316621
   scf:   87     -884.283097     -885.955880     -885.956218  0.090287 -5.113352 12.458174
   scf:   88     -852.446220     -885.267079     -885.267079  1.929975 -8.224479 16.640389
   scf:   89     -891.345019     -888.461596     -888.461596  0.159691 -5.620469 11.474457
   scf:   90     -889.939555     -889.211119     -889.211119  0.043751 -5.181103 10.331158
   scf:   91     -890.453637     -889.840541     -889.840541  0.049178 -5.150926  9.402459
   scf:   92     -889.981636     -889.913254     -889.913254  0.028621 -5.258017  9.291608
   scf:   93     -855.447591     -886.955011     -886.967970  1.795504 -5.310711 11.725836
   scf:   94     -877.726787     -892.632117     -892.654884  1.570523 -5.295099  5.715855
   scf:   95     -888.759492     -890.804027     -890.804297  0.174244 -5.202200  8.020939
   scf:   96     -890.565147     -894.934770     -895.002710  1.001968 -5.273702  3.748901
   scf:   97     -878.930359     -890.781354     -890.781558  1.002190 -5.236199  8.057881
   scf:   98     -890.584247     -890.683093     -890.683170  0.015078 -5.227314  8.195705
   scf:   99     -890.814106     -890.748776     -890.748924  0.011462 -5.238276  8.099740
   scf:  100     -889.857061     -890.307547     -890.307547  0.060775 -5.296874  8.785882
   scf:  101     -890.620211     -890.464292     -890.464300  0.028576 -5.437384  8.769882
   scf:  102     -889.926932     -890.197416     -890.197416  0.039296 -5.428198  9.170397
   scf:  103     -826.876692     -878.601128     -878.601128  1.993037 -3.343630 20.383852
   scf:  104     -890.033345     -884.955729     -884.955734  0.181190 -4.636856 13.794614
   scf:  105     -898.157867     -895.069178     -895.134796  0.900791 -5.158823  3.544713
   scf:  106     -872.454501     -886.618192     -886.626436  0.801033 -5.097687 12.291880
   scf:  107     -871.983989     -891.304046     -891.309188  1.701659 -5.260909  7.503143
   scf:  108     -892.349765     -891.835048     -891.848129  0.048116 -5.260957  6.868824
   scf:  109     -855.918368     -886.344634     -886.347809  1.691215 -5.191343 11.981350
   scf:  110     -887.721828     -887.040259     -887.052520  0.041428 -5.180186 11.547943
   scf:  111     -893.369876     -890.421179     -890.464869  0.218470 -5.261272  9.110319
   scf:  112     -880.949836     -892.915043     -892.943698  1.321223 -5.297944  5.577433
   scf:  113     -889.578434     -891.329010     -891.333949  0.154356 -5.335045  7.503931
   scf:  114     -892.955300     -892.163115     -892.180638  0.077411 -5.306207  6.503137
   scf:  115     -893.434219     -892.815027     -892.842274  0.066099 -5.303675  5.711369
   scf:  116     -889.415814     -891.196607     -891.199557  0.156027 -5.311148  7.612308
   scf:  117     -891.656553     -891.428441     -891.434158  0.023333 -5.240619  7.215597
   scf:  118     -886.768661     -889.209956     -889.209956  0.196698 -6.053628 10.785415
   scf:  119     -889.573447     -889.393070     -889.393070  0.014629 -6.065859 10.702288
   scf:  120     -876.843459     -892.096394     -892.127425  1.510759 -6.573132  5.948470
   scf:  121     -880.803773     -887.232882     -887.236893  0.547943 -5.964659  9.281096
   scf:  122     -873.294485     -891.493739     -891.500650  1.731284 -5.384218  7.227558
   scf:  123     -894.134563     -892.902791     -892.926380  0.136235 -5.287898  5.094125
   scf:  124     -895.050604     -894.056329     -894.099011  0.148641 -5.377326  3.718318
   scf:  125     -888.686425     -891.658460     -891.668810  0.257542 -5.650274  7.510876
   scf:  126     -884.421976     -893.652784     -893.716526  1.143331 -5.496912  5.553504
   scf:  127     -880.580912     -892.035058     -892.050107  1.126012 -5.246138  6.455995
   scf:  128     -891.519026     -891.779126     -891.790071  0.022522 -5.282258  6.790372
   scf:  129     -893.500427     -892.668274     -892.692202  0.086092 -5.232131  5.657848
   scf:  130     -892.410020     -892.539789     -892.561839  0.014084 -5.222137  5.796587
   scf:  131     -892.532540     -892.536165     -892.558224  0.000588 -5.235476  5.814740
   scf:  132     -893.269891     -892.908811     -892.938203  0.043946 -5.266557  5.464986
   scf:  133     -864.013630     -888.043719     -888.052054  1.561152 -6.332230  8.482989
   scf:  134     -896.333511     -892.819043     -892.875926  0.419485 -5.628710  6.127760
   scf:  135     -889.926943     -894.637447     -894.690361  0.899507 -5.387278  2.925454
   scf:  136     -892.436863     -893.628866     -893.668002  0.156268 -5.285269  4.505266
   scf:  137     -893.480074     -893.554831     -893.592944  0.009806 -5.291478  4.622898
   scf:  138     -893.431721     -893.493566     -893.531342  0.010318 -5.297043  4.728508
   scf:  139     -896.144551     -895.150857     -895.211094  0.292739 -5.425510  1.891101
   scf:  140     -895.106432     -895.128905     -895.188527  0.010862 -5.413861  1.950629
   scf:  141     -895.618663     -895.495983     -895.561853  0.181435 -5.648341  0.432342
   scf:  142     -895.426855     -895.494381     -895.561969  0.089989 -5.696423  0.493549
   scf:  143     -895.337534     -895.471554     -895.537710  0.118470 -5.642316  0.657766
   scf:  144     -895.456236     -895.464448     -895.530064  0.037417 -5.618266  0.714825
   scf:  145     -895.496607     -895.511302     -895.578989  0.088275 -5.684631  0.168911
   scf:  146     -895.513199     -895.512482     -895.580325  0.014367 -5.669194  0.125722
   scf:  147     -895.512748     -895.512844     -895.580757  0.023304 -5.639257  0.158542
   scf:  148     -895.512525     -895.512770     -895.580669  0.013713 -5.657812  0.139813
   scf:  149     -895.513509     -895.513180     -895.580941  0.010900 -5.660866  0.148606
   scf:  150     -895.512787     -895.513283     -895.580499  0.033748 -5.670566  0.130474
   scf:  151     -895.511963     -895.512663     -895.579712  0.011050 -5.669977  0.140561
   scf:  152     -895.514057     -895.513778     -895.581328  0.034909 -5.723742  0.085268
   scf:  153     -895.513414     -895.513603     -895.581151  0.001527 -5.721855  0.102722
   scf:  154     -895.514429     -895.514285     -895.581759  0.007469 -5.718709  0.017208
   scf:  155     -895.514299     -895.514294     -895.581774  0.000948 -5.718233  0.014701
   scf:  156     -895.514265     -895.514281     -895.581782  0.001227 -5.719120  0.013686
   scf:  157     -895.514099     -895.514208     -895.581811  0.010762 -5.715807  0.010403
   scf:  158     -895.514174     -895.514196     -895.581829  0.001425 -5.715271  0.006921
   scf:  159     -895.514249     -895.514228     -895.581832  0.002309 -5.719794  0.015800
   scf:  160     -895.514257     -895.514242     -895.581836  0.000964 -5.720986  0.015144
   scf:  161     -895.514280     -895.514266     -895.581844  0.001858 -5.720506  0.007148
   scf:  162     -895.514273     -895.514270     -895.581842  0.000830 -5.718862  0.011262
   scf:  163     -895.514262     -895.514268     -895.581853  0.002709 -5.719521  0.001739
   scf:  164     -895.514255     -895.514262     -895.581854  0.000707 -5.719767  0.001420
   scf:  165     -895.514245     -895.514254     -895.581854  0.001109 -5.720134  0.002553
   scf:  166     -895.514256     -895.514255     -895.581854  0.000136 -5.719873  0.001003
   scf:  167     -895.514257     -895.514256     -895.581854  0.000094 -5.719960  0.001032
   scf:  168     -895.514260     -895.514258     -895.581854  0.000192 -5.720169  0.001073
   scf:  169     -895.514264     -895.514261     -895.581854  0.000186 -5.720349  0.001482
   scf:  170     -895.514264     -895.514263     -895.581854  0.000225 -5.719983  0.000658

SCF Convergence by DM+H criterion
max |DM_out - DM_in|         :     0.0002252381
max |H_out - H_in|      (eV) :     0.0006583700
SCF cycle converged after 170 iterations

Using DM_out to compute the final energy and forces
No. of atoms with KB's overlaping orbs in proc 0. Max # of overlaps:       4      26

siesta: E_KS(eV) =             -895.5143

siesta: Atomic forces (eV/Ang):
----------------------------------------
   Tot   -0.004648   -0.006894   -0.003681
----------------------------------------
   Max    3.051910
   Res    1.403958    sqrt( Sum f_i^2 / 3N )
----------------------------------------
   Max    3.051910    constrained

Stress tensor Voigt[x,y,z,yz,xz,xy] (kbar):       -0.19        5.40       -0.76       -0.42       -0.26       -3.22
(Free)E + p*V (eV/cell)     -896.5075
Target enthalpy (eV/cell)     -895.5819

siesta: Stress tensor (static) (eV/Ang**3):
         0.001106   -0.003290   -0.000729
        -0.003289    0.006112    0.000917
        -0.000729    0.000917    0.000207

siesta: Pressure (static):         -3.96591207  kBar

siesta: Stress tensor (total) (eV/Ang**3):
        -0.000118   -0.002012   -0.000162
        -0.002011    0.003370   -0.000259
        -0.000162   -0.000259   -0.000475

siesta: Pressure (total):         -1.48301024  kBar

siesta: Temp_ion =    6617.528 K

coxmol: Writing XMOL coordinates into file xoc.xyz                                                                                                                                                                                                                             

siesta: Program's energy decomposition (eV):
siesta: Ebs     =      -180.853672
siesta: Eions   =      1581.702395
siesta: Ena     =       338.236960
siesta: Ekin    =       630.460756
siesta: Enl     =       -90.377606
siesta: Eso     =         0.000000
siesta: Edftu   =         0.000000
siesta: DEna    =        10.550411
siesta: DUscf   =         1.419719
siesta: DUext   =         0.000000
siesta: Ex      =      -190.315486
siesta: Ec      =       -13.786622
siesta: Exc     =      -204.102108
siesta: EbV     =         0.000000
siesta: eta*DQ  =         0.000000
siesta: Emadel  =         0.000000
siesta: Emeta   =         0.000000
siesta: Emolmec =         0.000000
siesta: Ekinion =         2.566145
siesta: Eharris =      -892.948119
siesta: Etot    =      -892.948118
siesta: FreeEng =      -893.015709

siesta: Final energy (eV):
siesta:  Band Struct. =    -180.853672
siesta:       Kinetic =     630.460756
siesta:       Hartree =     915.549765
siesta:         Edftu =       0.000000
siesta:       Eso     =       0.000000
siesta:    Ext. field =       0.000000
siesta:         Exch. =    -190.315486
siesta:         Corr. =     -13.786622
siesta:     Bulk bias =       0.000000
siesta:   Exch.-corr. =    -204.102108
siesta:  Ion-electron =   -2382.232018
siesta:       Ion-ion =     144.809342
siesta:       Ekinion =       2.566145
siesta: D3 dispersion =       0.000000
siesta:         Total =    -892.948118
siesta:         Fermi =      -5.719983

siesta: Atomic forces (eV/Ang):
siesta:      1   -1.239383   -1.019017   -0.183235
siesta:      2    2.116791   -2.496186   -0.444707
siesta:      3   -0.410048    0.456399    0.195095
siesta:      4   -0.472008    3.051910    0.429166
siesta: ----------------------------------------
siesta:    Tot   -0.004648   -0.006894   -0.003681

siesta: Stress tensor (static) (eV/Ang**3):
siesta:     0.001106   -0.003290   -0.000729
siesta:    -0.003289    0.006112    0.000917
siesta:    -0.000729    0.000917    0.000207

siesta: Cell volume =       1000.001196 Ang**3

siesta: Pressure (static):
siesta:                Solid            Molecule  Units
siesta:          -0.00002696         -0.00000008  Ry/Bohr**3
siesta:          -0.00247533         -0.00000700  eV/Ang**3
siesta:          -3.96591207         -0.01122295  kBar
(Free)E+ p_basis*V_orbitals  =        -894.823145
(Free)Eharris+ p_basis*V_orbitals  =        -894.823147

siesta: Electric dipole (a.u.)  =    0.367216   -0.555527   -0.067781
siesta: Electric dipole (Debye) =    0.933369   -1.412008   -0.172282

cite: Please see "xoc.bib" for an exhaustive BiBTeX file.
cite: Please clearly indicate Siesta version in published work: 5.2.1
cite: This calculation has made use of the following articles
cite: which are encouraged to be cited in a published work.
        Primary SIESTA paper
          DOI: www.doi.org/10.1088/0953-8984/14/11/302


timer: Elapsed wall time (sec) =     477.240
timer: CPU execution times (sec):

Routine            Calls   Time/call    Tot.time        %
siesta                 1    2275.999    2275.999   100.00
Setup                  1       1.087       1.087     0.05
bands                  1       0.000       0.000     0.00
KSV_init               1       0.000       0.000     0.00
IterGeom             100      22.749    2274.911    99.95
geom_init            100       0.192      19.208     0.84
state_init           100       0.001       0.093     0.00
hsparse              100       0.000       0.003     0.00
overlap              100       0.001       0.071     0.00
Setup_H0             100       0.090       9.013     0.40
naefs                200       0.000       0.003     0.00
dnaefs               200       0.000       0.002     0.00
MolMec               200       0.000       0.000     0.00
kinefsm              200       0.000       0.085     0.00
nlefsm               200       0.003       0.543     0.02
DHSCF_Init           100       0.085       8.465     0.37
DHSCF1               100       0.008       0.764     0.03
InitMesh             100       0.008       0.763     0.03
INITMESH             100       0.000       0.000     0.00
DHSCF2               100       0.077       7.701     0.34
REMESH               100       0.003       0.299     0.01
REORD               9920       0.002      20.990     0.92
PHION                100       0.037       3.696     0.16
COMM_BSC           17140       0.002      27.954     1.23
POISON              4310       0.156     670.305    29.45
fft                 8620       0.056     480.107    21.09
setup_H             4110       0.546    2244.146    98.60
DHSCF               4210       0.536    2257.792    99.20
DHSCF3              4210       0.535    2251.184    98.91
rhoofd              4210       0.036     150.881     6.63
XC                  4210       0.289    1218.584    53.54
GXC-CellXC          4210       0.277    1165.098    51.19
gridxc@cellXC       4210       0.277    1165.004    51.19
vmat                4210       0.004      17.560     0.77
IterSCF             4010       0.558    2238.847    98.37
compute_dm          4010       0.001       4.260     0.19
diagon              4010       0.001       4.204     0.18
r-eigvec            4010       0.001       3.623     0.16
r-buildHS           4010       0.000       0.010     0.00
rdiag               4010       0.001       3.596     0.16
rdiag1              4010       0.000       0.016     0.00
rdiag2              4010       0.000       0.048     0.00
rdiag3              4010       0.001       3.332     0.15
rdiag4              4010       0.000       0.145     0.01
r-buildD            4010       0.000       0.387     0.02
MIXER               3910       0.000       0.103     0.00
PostSCF              100       0.168      16.773     0.74
FINAL_HF             100       0.168      16.770     0.74
DHSCF4               100       0.066       6.597     0.29
dfscf                100       0.049       4.912     0.22
overfsm              100       0.000       0.016     0.00
writeHSX             100       0.000       0.008     0.00
state_analysis       100       0.000       0.011     0.00
siesta_move          100       0.000       0.023     0.00
Analysis               1       0.000       0.000     0.00
optical                1       0.000       0.000     0.00
  

>> End of run:  26-MAR-2025  16:29:01
Job completed
